/*--------------------------------*- C++ -*----------------------------------*\
| =========                 |                                                 |
| \\      /  F ield         | OpenFOAM: The Open Source CFD Toolbox           |
|  \\    /   O peration     | Version:  5.x                                   |
|   \\  /    A nd           | Web:      www.OpenFOAM.org                      |
|    \\/     M anipulation  |                                                 |
\*---------------------------------------------------------------------------*/
FoamFile
{
    version     2.0;
    format      ascii;
    class       volScalarField;
    location    "600";
    object      epsilon;
}
// * * * * * * * * * * * * * * * * * * * * * * * * * * * * * * * * * * * * * //

dimensions      [0 2 -3 0 0 0 0];

internalField   nonuniform List<scalar> 
15000
(
52.2832
50.7319
49.2078
47.6011
45.953
44.3429
42.839
41.4871
40.3138
39.331
38.5402
37.9363
37.5093
37.2462
37.1325
37.1526
37.2911
37.5326
37.8624
38.2668
38.7331
39.2498
39.8065
40.3939
41.0039
41.6294
42.2643
42.9033
43.542
44.1767
44.8044
45.4224
46.0288
46.6221
47.2009
47.7644
48.3119
48.8431
49.3576
49.8555
50.3368
50.8016
51.2504
51.6823
52.1032
52.4874
52.9577
52.9346
55.1637
46.548
7.92435
13.1238
15.6946
17.0243
17.8888
18.6332
19.4129
20.2986
21.3187
22.4803
23.7802
25.2096
26.7564
28.4067
30.1451
31.9562
33.8243
35.734
37.6706
39.6204
41.5707
43.5098
45.4278
47.3156
49.1656
50.9714
52.728
54.431
56.0776
57.6653
59.1928
60.6592
62.0645
63.409
64.6933
65.9186
67.0862
68.1977
69.2549
70.2597
71.2142
72.1207
72.9816
73.7998
74.5805
75.3222
76.071
76.7038
77.7911
77.8013
4.16864
5.75853
7.0722
8.02618
8.72788
9.28133
9.75662
10.1988
10.6375
11.0922
11.5762
12.0983
12.6637
13.2749
13.9327
14.6359
15.3823
16.1689
16.9919
17.8472
18.7303
19.6368
20.562
21.5016
22.4513
23.4072
24.3655
25.3229
26.2761
27.2225
28.1595
29.085
29.997
30.8941
31.7747
32.6379
33.4827
34.3084
35.1146
35.9009
36.667
37.4131
38.1395
38.8463
39.5352
40.2057
40.8661
41.5061
42.1572
42.7598
3.61833
4.03611
4.55724
5.05577
5.49036
5.86115
6.18076
6.46325
6.72099
6.96407
7.20055
7.43682
7.6778
7.92727
8.18795
8.46174
8.74983
9.05281
9.37081
9.70356
10.0505
10.4109
10.7837
11.1679
11.5624
11.9658
12.3771
12.7951
13.2184
13.6461
14.077
14.5101
14.9444
15.3791
15.8133
16.2463
16.6773
17.1057
17.531
17.9527
18.3704
18.7836
19.1922
19.596
19.995
20.3893
20.7798
21.166
21.5489
21.9288
3.5366
3.6218
3.79217
4.006
4.22881
4.44228
4.63957
4.81998
4.9854
5.13866
5.2827
5.42031
5.55397
5.68582
5.81766
5.95094
6.08681
6.22615
6.36959
6.51754
6.67026
6.82783
6.99023
7.15733
7.32893
7.50478
7.68457
7.86798
8.05465
8.24424
8.43637
8.63069
8.82685
9.02452
9.22337
9.42309
9.62338
9.82398
10.0246
10.2251
10.4251
10.6246
10.8233
11.0211
11.218
11.4139
11.6088
11.8026
11.9952
12.1862
3.52662
3.5245
3.5601
3.62981
3.722
3.82517
3.93114
4.0352
4.13507
4.22998
4.32003
4.40575
4.48788
4.56722
4.64457
4.72066
4.79614
4.87158
4.94746
5.02414
5.10192
5.18101
5.26157
5.34368
5.42737
5.51266
5.59948
5.6878
5.77751
5.86852
5.96072
6.05398
6.14819
6.24322
6.33894
6.43523
6.53198
6.62905
6.72636
6.82378
6.92123
7.01862
7.11587
7.2129
7.30967
7.40613
7.50224
7.59792
7.69301
7.78731
3.52615
3.50402
3.49472
3.5021
3.52553
3.5616
3.60614
3.65554
3.70714
3.75918
3.81061
3.86087
3.90975
3.95725
4.00348
4.04863
4.09295
4.13666
4.17998
4.22313
4.26628
4.30959
4.35318
4.39714
4.44156
4.48648
4.53192
4.5779
4.62442
4.67146
4.71899
4.76699
4.8154
4.86418
4.9133
4.96269
5.01231
5.0621
5.11203
5.16204
5.21208
5.26211
5.31209
5.36198
5.41176
5.46138
5.51081
5.56001
5.60888
5.65733
3.52634
3.50035
3.47827
3.4627
3.45523
3.45604
3.46417
3.47814
3.49642
3.51765
3.54075
3.56492
3.58962
3.61447
3.63925
3.66386
3.68823
3.71237
3.73632
3.76012
3.78383
3.80751
3.83121
3.85499
3.87889
3.90295
3.92718
3.95163
3.97628
4.00115
4.02624
4.05154
4.07704
4.10273
4.12858
4.15459
4.18072
4.20695
4.23327
4.25964
4.28606
4.31248
4.33889
4.36528
4.39161
4.41787
4.44404
4.47008
4.49595
4.5216
3.52642
3.49982
3.47461
3.45182
3.43251
3.41745
3.4069
3.40069
3.39833
3.39922
3.40272
3.40824
3.41531
3.42352
3.43257
3.44221
3.45229
3.46268
3.4733
3.48411
3.49506
3.50615
3.51736
3.52871
3.54019
3.5518
3.56356
3.57547
3.58753
3.59974
3.6121
3.62461
3.63726
3.65005
3.66297
3.67601
3.68915
3.70239
3.71571
3.7291
3.74255
3.75605
3.76958
3.78312
3.79667
3.81022
3.82374
3.83721
3.85062
3.86393
3.52644
3.49977
3.47389
3.44912
3.4259
3.4047
3.38588
3.36967
3.35608
3.34501
3.33623
3.32948
3.32448
3.32095
3.31867
3.31742
3.31702
3.31733
3.31823
3.31962
3.32145
3.32363
3.32615
3.32894
3.33201
3.33531
3.33884
3.34258
3.34652
3.35065
3.35497
3.35946
3.36411
3.36893
3.37389
3.37899
3.38422
3.38957
3.39504
3.40061
3.40627
3.41202
3.41784
3.42373
3.42968
3.43567
3.44169
3.44774
3.45379
3.45983
3.52644
3.49976
3.47376
3.44851
3.42415
3.40087
3.37887
3.35834
3.33941
3.32214
3.30653
3.29251
3.27999
3.26885
3.25895
3.25017
3.24237
3.23546
3.22931
3.22385
3.219
3.21469
3.21086
3.20747
3.20447
3.20183
3.19952
3.19752
3.19579
3.19434
3.19313
3.19215
3.1914
3.19085
3.19049
3.19032
3.19032
3.19049
3.19081
3.19127
3.19187
3.1926
3.19344
3.1944
3.19546
3.1966
3.19784
3.19914
3.20051
3.20194
3.52644
3.49975
3.47372
3.44837
3.42372
3.39981
3.37673
3.35456
3.33339
3.31328
3.2943
3.27645
3.25974
3.24412
3.22955
3.21597
3.20332
3.19153
3.18054
3.17028
3.16069
3.15172
3.14331
3.13542
3.12801
3.12104
3.11448
3.1083
3.10247
3.09698
3.0918
3.08691
3.08229
3.07793
3.07382
3.06993
3.06627
3.06281
3.05955
3.05647
3.05357
3.05084
3.04826
3.04584
3.04355
3.0414
3.03938
3.03747
3.03567
3.03397
3.52644
3.49974
3.4737
3.44833
3.4236
3.39952
3.3761
3.35337
3.33137
3.31012
3.28965
3.27001
3.25119
3.2332
3.21605
3.1997
3.18413
3.16932
3.15523
3.14182
3.12906
3.11691
3.10533
3.0943
3.08376
3.0737
3.06409
3.0549
3.0461
3.03768
3.02961
3.02187
3.01445
3.00732
3.00048
2.9939
2.98759
2.98151
2.97566
2.97004
2.96463
2.95941
2.95439
2.94955
2.94489
2.94039
2.93605
2.93186
2.92781
2.9239
3.52643
3.49973
3.47369
3.4483
3.42355
3.39942
3.37591
3.35301
3.33072
3.30905
3.288
3.26759
3.24783
3.22872
3.21027
3.19247
3.17531
3.15879
3.14288
3.12757
3.11285
3.09868
3.08505
3.07193
3.0593
3.04714
3.03542
3.02413
3.01325
3.00275
2.99263
2.98285
2.97341
2.96429
2.95547
2.94694
2.9387
2.93072
2.923
2.91552
2.90827
2.90125
2.89445
2.88785
2.88145
2.87525
2.86922
2.86337
2.85769
2.85217
3.52643
3.49973
3.47368
3.44828
3.42352
3.39938
3.37584
3.35288
3.3305
3.30868
3.28743
3.26673
3.24658
3.22699
3.20795
3.18946
3.17151
3.1541
3.13722
3.12086
3.10501
3.08966
3.07479
3.06039
3.04645
3.03295
3.01987
3.0072
2.99492
2.98302
2.97149
2.96031
2.94947
2.93895
2.92874
2.91884
2.90922
2.89988
2.89081
2.882
2.87343
2.8651
2.85701
2.84914
2.84148
2.83402
2.82677
2.81971
2.81283
2.80613
3.52643
3.49972
3.47367
3.44827
3.4235
3.39935
3.3758
3.35282
3.33041
3.30854
3.28722
3.26641
3.24612
3.22634
3.20705
3.18826
3.16995
3.15212
3.13477
3.11787
3.10144
3.08545
3.06989
3.05477
3.04006
3.02576
3.01185
2.99832
2.98517
2.97238
2.95995
2.94785
2.93608
2.92463
2.91349
2.90264
2.89209
2.88181
2.8718
2.86206
2.85256
2.84332
2.8343
2.82552
2.81696
2.80862
2.80048
2.79254
2.7848
2.77725
3.52643
3.49972
3.47366
3.44825
3.42348
3.39932
3.37576
3.35278
3.33035
3.30847
3.28712
3.26628
3.24593
3.22608
3.2067
3.18778
3.16932
3.15131
3.13374
3.1166
3.09988
3.08357
3.06766
3.05215
3.03703
3.02229
3.00791
2.9939
2.98024
2.96692
2.95393
2.94127
2.92892
2.91688
2.90514
2.89369
2.88253
2.87163
2.861
2.85064
2.84052
2.83064
2.82101
2.8116
2.80242
2.79345
2.7847
2.77615
2.7678
2.75964
3.52643
3.49971
3.47365
3.44824
3.42347
3.3993
3.37574
3.35275
3.33031
3.30842
3.28706
3.2662
3.24583
3.22595
3.20654
3.18757
3.16906
3.15097
3.13331
3.11605
3.0992
3.08275
3.06668
3.05098
3.03565
3.02068
3.00606
2.99178
2.97784
2.96423
2.95093
2.93794
2.92526
2.91287
2.90077
2.88895
2.87741
2.86613
2.85511
2.84435
2.83383
2.82355
2.81351
2.80369
2.79409
2.78472
2.77555
2.76658
2.75782
2.74925
3.52643
3.49971
3.47365
3.44823
3.42345
3.39929
3.37571
3.35272
3.33028
3.30838
3.28701
3.26614
3.24577
3.22587
3.20644
3.18746
3.16892
3.1508
3.1331
3.1158
3.0989
3.08238
3.06623
3.05045
3.03502
3.01994
3.0052
2.9908
2.97671
2.96294
2.94948
2.93632
2.92345
2.91087
2.89856
2.88653
2.87477
2.86327
2.85202
2.84101
2.83025
2.81972
2.80942
2.79935
2.7895
2.77985
2.77042
2.76119
2.75216
2.74331
3.52643
3.49971
3.47364
3.44823
3.42344
3.39927
3.37569
3.35269
3.33025
3.30834
3.28697
3.26609
3.24571
3.22581
3.20637
3.18738
3.16883
3.1507
3.13298
3.11566
3.09873
3.08219
3.06601
3.05019
3.03472
3.01959
3.00479
2.99032
2.97617
2.96232
2.94878
2.93553
2.92256
2.90988
2.89747
2.88532
2.87344
2.86181
2.85043
2.83929
2.82839
2.81771
2.80727
2.79704
2.78703
2.77723
2.76763
2.75824
2.74904
2.74003
3.52643
3.4997
3.47364
3.44822
3.42343
3.39926
3.37567
3.35267
3.33022
3.30831
3.28693
3.26605
3.24567
3.22576
3.20631
3.18732
3.16876
3.15062
3.13289
3.11557
3.09863
3.08206
3.06587
3.05003
3.03454
3.01939
3.00457
2.99007
2.97588
2.962
2.94842
2.93512
2.92211
2.90938
2.89691
2.88471
2.87276
2.86107
2.84961
2.8384
2.82742
2.81667
2.80614
2.79583
2.78573
2.77583
2.76614
2.75665
2.74735
2.73823
3.52643
3.4997
3.47363
3.44821
3.42342
3.39924
3.37566
3.35265
3.3302
3.30829
3.2869
3.26602
3.24563
3.22571
3.20626
3.18726
3.1687
3.15055
3.13282
3.11549
3.09854
3.08197
3.06577
3.04993
3.03443
3.01926
3.00443
2.98992
2.97571
2.96181
2.94821
2.9349
2.92186
2.9091
2.89661
2.88437
2.8724
2.86067
2.84918
2.83793
2.8269
2.81611
2.80553
2.79517
2.78502
2.77508
2.76533
2.75578
2.74643
2.73725
3.52642
3.4997
3.47363
3.44821
3.42341
3.39923
3.37565
3.35263
3.33018
3.30826
3.28687
3.26598
3.24559
3.22567
3.20622
3.18721
3.16864
3.15049
3.13276
3.11542
3.09847
3.0819
3.06569
3.04984
3.03433
3.01916
3.00432
2.9898
2.97559
2.96168
2.94807
2.93474
2.92169
2.90892
2.89641
2.88417
2.87217
2.86042
2.84891
2.83764
2.8266
2.81578
2.80518
2.79479
2.78462
2.77464
2.76487
2.75529
2.7459
2.73669
3.52642
3.4997
3.47363
3.4482
3.42341
3.39922
3.37563
3.35262
3.33016
3.30824
3.28684
3.26595
3.24555
3.22563
3.20618
3.18717
3.16859
3.15044
3.1327
3.11536
3.0984
3.08183
3.06561
3.04976
3.03425
3.01907
3.00423
2.9897
2.97549
2.96157
2.94795
2.93462
2.92157
2.90878
2.89627
2.88401
2.87201
2.86025
2.84873
2.83745
2.82639
2.81556
2.80495
2.79454
2.78435
2.77436
2.76457
2.75497
2.74556
2.73633
3.52642
3.4997
3.47362
3.4482
3.4234
3.39922
3.37562
3.3526
3.33014
3.30822
3.28682
3.26593
3.24552
3.2256
3.20614
3.18712
3.16855
3.15039
3.13265
3.1153
3.09834
3.08176
3.06555
3.04969
3.03417
3.019
3.00415
2.98962
2.97539
2.96148
2.94785
2.93451
2.92146
2.90867
2.89615
2.88388
2.87187
2.86011
2.84858
2.83729
2.82623
2.81539
2.80477
2.79436
2.78415
2.77415
2.76435
2.75474
2.74532
2.73608
3.52642
3.49969
3.47362
3.44819
3.4234
3.39921
3.37561
3.35259
3.33013
3.3082
3.2868
3.2659
3.2455
3.22557
3.2061
3.18709
3.16851
3.15035
3.1326
3.11525
3.09829
3.0817
3.06548
3.04962
3.0341
3.01892
3.00407
2.98953
2.97531
2.96139
2.94776
2.93442
2.92136
2.90856
2.89604
2.88377
2.87176
2.85999
2.84845
2.83716
2.82609
2.81524
2.80461
2.7942
2.78399
2.77398
2.76417
2.75455
2.74512
2.73587
3.52642
3.49969
3.47362
3.44819
3.42339
3.3992
3.3756
3.35258
3.33011
3.30819
3.28678
3.26588
3.24547
3.22554
3.20607
3.18705
3.16847
3.15031
3.13256
3.1152
3.09824
3.08165
3.06543
3.04956
3.03404
3.01886
3.004
2.98946
2.97523
2.96131
2.94767
2.93433
2.92126
2.90847
2.89594
2.88367
2.87165
2.85987
2.84834
2.83703
2.82596
2.81511
2.80447
2.79405
2.78384
2.77382
2.764
2.75438
2.74494
2.73569
3.52642
3.49969
3.47362
3.44819
3.42339
3.3992
3.3756
3.35257
3.3301
3.30817
3.28676
3.26586
3.24545
3.22552
3.20605
3.18702
3.16844
3.15027
3.13252
3.11516
3.09819
3.0816
3.06537
3.0495
3.03398
3.01879
3.00393
2.98939
2.97516
2.96123
2.9476
2.93425
2.92118
2.90838
2.89584
2.88357
2.87154
2.85977
2.84823
2.83692
2.82584
2.81498
2.80434
2.79392
2.7837
2.77368
2.76385
2.75422
2.74478
2.73552
3.52642
3.49969
3.47362
3.44818
3.42338
3.39919
3.37559
3.35256
3.33009
3.30816
3.28675
3.26584
3.24543
3.2255
3.20602
3.18699
3.1684
3.15024
3.13248
3.11512
3.09815
3.08156
3.06533
3.04945
3.03393
3.01874
3.00387
2.98933
2.97509
2.96116
2.94752
2.93417
2.92109
2.90829
2.89575
2.88348
2.87145
2.85966
2.84812
2.83681
2.82573
2.81487
2.80422
2.79379
2.78356
2.77354
2.76371
2.75407
2.74462
2.73536
3.52642
3.49969
3.47361
3.44818
3.42338
3.39919
3.37559
3.35256
3.33008
3.30815
3.28674
3.26583
3.24541
3.22547
3.206
3.18697
3.16838
3.15021
3.13245
3.11508
3.09811
3.08151
3.06528
3.04941
3.03388
3.01868
3.00382
2.98927
2.97503
2.96109
2.94745
2.9341
2.92102
2.90821
2.89567
2.88339
2.87136
2.85957
2.84802
2.83671
2.82562
2.81476
2.80411
2.79367
2.78344
2.77341
2.76357
2.75393
2.74448
2.73521
3.52642
3.49969
3.47361
3.44818
3.42338
3.39918
3.37558
3.35255
3.33008
3.30814
3.28672
3.26582
3.2454
3.22546
3.20598
3.18695
3.16835
3.15018
3.13242
3.11505
3.09807
3.08147
3.06524
3.04936
3.03383
3.01863
3.00376
2.98921
2.97497
2.96103
2.94739
2.93403
2.92095
2.90814
2.89559
2.88331
2.87127
2.85948
2.84793
2.83661
2.82552
2.81465
2.804
2.79356
2.78332
2.77328
2.76345
2.7538
2.74434
2.73506
3.52642
3.49969
3.47361
3.44818
3.42337
3.39918
3.37558
3.35254
3.33007
3.30813
3.28671
3.2658
3.24538
3.22544
3.20596
3.18693
3.16833
3.15015
3.13239
3.11502
3.09804
3.08144
3.0652
3.04932
3.03379
3.01859
3.00371
2.98916
2.97492
2.96097
2.94733
2.93396
2.92088
2.90807
2.89552
2.88323
2.87119
2.8594
2.84784
2.83652
2.82542
2.81455
2.80389
2.79345
2.78321
2.77317
2.76332
2.75367
2.74421
2.73493
3.52642
3.49969
3.47361
3.44818
3.42337
3.39918
3.37557
3.35254
3.33006
3.30812
3.2867
3.26579
3.24537
3.22543
3.20594
3.18691
3.16831
3.15013
3.13236
3.11499
3.09801
3.08141
3.06517
3.04928
3.03375
3.01854
3.00367
2.98911
2.97487
2.96092
2.94727
2.9339
2.92082
2.908
2.89545
2.88316
2.87111
2.85932
2.84776
2.83643
2.82533
2.81446
2.80379
2.79334
2.7831
2.77306
2.76321
2.75355
2.74408
2.7348
3.52642
3.49969
3.47361
3.44818
3.42337
3.39917
3.37557
3.35253
3.33006
3.30812
3.2867
3.26578
3.24536
3.22541
3.20593
3.18689
3.16829
3.15011
3.13234
3.11497
3.09798
3.08138
3.06514
3.04925
3.03371
3.0185
3.00363
2.98907
2.97482
2.96087
2.94722
2.93385
2.92076
2.90794
2.89539
2.88309
2.87104
2.85924
2.84768
2.83635
2.82525
2.81437
2.8037
2.79325
2.783
2.77295
2.7631
2.75344
2.74397
2.73467
3.52642
3.49969
3.47361
3.44818
3.42337
3.39917
3.37557
3.35253
3.33005
3.30811
3.28669
3.26577
3.24535
3.2254
3.20591
3.18687
3.16827
3.15009
3.13232
3.11495
3.09796
3.08135
3.06511
3.04922
3.03367
3.01847
3.00359
2.98903
2.97477
2.96082
2.94717
2.9338
2.9207
2.90788
2.89532
2.88302
2.87098
2.85917
2.84761
2.83627
2.82517
2.81428
2.80361
2.79315
2.7829
2.77285
2.76299
2.75333
2.74385
2.73456
3.52642
3.49969
3.47361
3.44817
3.42337
3.39917
3.37556
3.35253
3.33005
3.3081
3.28668
3.26577
3.24534
3.22539
3.2059
3.18686
3.16826
3.15007
3.1323
3.11492
3.09794
3.08132
3.06508
3.04919
3.03364
3.01843
3.00355
2.98899
2.97473
2.96078
2.94712
2.93375
2.92065
2.90783
2.89527
2.88296
2.87091
2.85911
2.84754
2.8362
2.82509
2.8142
2.80353
2.79307
2.78281
2.77276
2.7629
2.75323
2.74375
2.73445
3.52642
3.49969
3.47361
3.44817
3.42337
3.39917
3.37556
3.35252
3.33004
3.3081
3.28668
3.26576
3.24533
3.22538
3.20589
3.18685
3.16824
3.15006
3.13228
3.11491
3.09792
3.0813
3.06505
3.04916
3.03361
3.0184
3.00352
2.98895
2.9747
2.96074
2.94708
2.9337
2.9206
2.90778
2.89521
2.88291
2.87085
2.85904
2.84747
2.83613
2.82502
2.81413
2.80345
2.79299
2.78273
2.77267
2.7628
2.75313
2.74364
2.73434
3.52642
3.49969
3.47361
3.44817
3.42337
3.39917
3.37556
3.35252
3.33004
3.3081
3.28667
3.26575
3.24533
3.22537
3.20588
3.18684
3.16823
3.15004
3.13227
3.11489
3.0979
3.08128
3.06503
3.04914
3.03359
3.01838
3.00349
2.98892
2.97466
2.9607
2.94704
2.93366
2.92056
2.90773
2.89517
2.88286
2.8708
2.85899
2.84741
2.83607
2.82495
2.81406
2.80338
2.79291
2.78265
2.77258
2.76272
2.75304
2.74355
2.73424
3.52642
3.49969
3.47361
3.44817
3.42337
3.39917
3.37556
3.35252
3.33004
3.30809
3.28667
3.26575
3.24532
3.22537
3.20587
3.18683
3.16822
3.15003
3.13225
3.11487
3.09788
3.08126
3.06501
3.04912
3.03357
3.01835
3.00346
2.98889
2.97463
2.96067
2.94701
2.93362
2.92052
2.90769
2.89512
2.88281
2.87075
2.85893
2.84736
2.83601
2.82489
2.81399
2.80331
2.79284
2.78257
2.7725
2.76263
2.75295
2.74346
2.73415
3.52642
3.49969
3.47361
3.44817
3.42337
3.39917
3.37556
3.35252
3.33004
3.30809
3.28666
3.26574
3.24531
3.22536
3.20587
3.18682
3.16821
3.15002
3.13224
3.11486
3.09787
3.08125
3.065
3.0491
3.03355
3.01833
3.00344
2.98887
2.9746
2.96064
2.94697
2.93359
2.92048
2.90765
2.89508
2.88277
2.8707
2.85888
2.8473
2.83596
2.82483
2.81393
2.80325
2.79277
2.7825
2.77243
2.76256
2.75287
2.74338
2.73406
3.52642
3.49969
3.47361
3.44817
3.42336
3.39917
3.37556
3.35252
3.33003
3.30809
3.28666
3.26574
3.24531
3.22535
3.20586
3.18681
3.1682
3.15001
3.13223
3.11485
3.09786
3.08124
3.06498
3.04908
3.03353
3.01831
3.00342
2.98884
2.97458
2.96062
2.94694
2.93356
2.92045
2.90762
2.89504
2.88273
2.87066
2.85884
2.84726
2.83591
2.82478
2.81388
2.80319
2.79271
2.78244
2.77236
2.76249
2.7528
2.7433
2.73398
3.52642
3.49969
3.47361
3.44817
3.42336
3.39917
3.37556
3.35252
3.33003
3.30809
3.28666
3.26574
3.24531
3.22535
3.20586
3.18681
3.1682
3.15001
3.13222
3.11484
3.09784
3.08122
3.06497
3.04907
3.03351
3.01829
3.0034
2.98882
2.97456
2.96059
2.94692
2.93353
2.92042
2.90758
2.89501
2.88269
2.87062
2.8588
2.84721
2.83586
2.82473
2.81383
2.80314
2.79265
2.78238
2.7723
2.76242
2.75273
2.74323
2.73391
3.52642
3.49969
3.47361
3.44817
3.42336
3.39917
3.37556
3.35252
3.33003
3.30809
3.28666
3.26574
3.24531
3.22535
3.20585
3.18681
3.16819
3.15
3.13222
3.11483
3.09784
3.08122
3.06496
3.04906
3.0335
3.01828
3.00338
2.98881
2.97454
2.96057
2.9469
2.93351
2.9204
2.90756
2.89498
2.88266
2.87059
2.85876
2.84718
2.83582
2.82469
2.81378
2.80309
2.7926
2.78233
2.77225
2.76236
2.75267
2.74317
2.73384
3.52642
3.49969
3.47361
3.44817
3.42337
3.39917
3.37556
3.35252
3.33003
3.30808
3.28666
3.26574
3.2453
3.22535
3.20585
3.1868
3.16819
3.15
3.13221
3.11483
3.09783
3.08121
3.06495
3.04905
3.03349
3.01827
3.00337
2.98879
2.97452
2.96056
2.94688
2.93349
2.92038
2.90753
2.89496
2.88263
2.87056
2.85873
2.84714
2.83579
2.82465
2.81374
2.80305
2.79256
2.78228
2.7722
2.76231
2.75262
2.74311
2.73378
3.52642
3.49969
3.47361
3.44817
3.42337
3.39917
3.37556
3.35252
3.33003
3.30808
3.28666
3.26574
3.2453
3.22535
3.20585
3.1868
3.16819
3.14999
3.13221
3.11483
3.09783
3.0812
3.06495
3.04904
3.03348
3.01826
3.00336
2.98878
2.97451
2.96054
2.94687
2.93347
2.92036
2.90752
2.89494
2.88261
2.87054
2.85871
2.84712
2.83576
2.82462
2.81371
2.80301
2.79252
2.78224
2.77216
2.76227
2.75257
2.74306
2.73373
3.52642
3.49969
3.47361
3.44817
3.42337
3.39917
3.37556
3.35252
3.33003
3.30809
3.28666
3.26574
3.2453
3.22535
3.20585
3.1868
3.16819
3.14999
3.13221
3.11482
3.09783
3.0812
3.06494
3.04904
3.03348
3.01825
3.00336
2.98878
2.9745
2.96053
2.94686
2.93346
2.92035
2.9075
2.89492
2.8826
2.87052
2.85869
2.8471
2.83573
2.8246
2.81368
2.80298
2.79249
2.78221
2.77212
2.76223
2.75253
2.74302
2.73369
3.52642
3.49969
3.47361
3.44817
3.42337
3.39917
3.37556
3.35252
3.33003
3.30809
3.28666
3.26574
3.24531
3.22535
3.20585
3.1868
3.16819
3.15
3.13221
3.11483
3.09783
3.0812
3.06494
3.04904
3.03348
3.01825
3.00335
2.98877
2.9745
2.96053
2.94685
2.93346
2.92034
2.90749
2.89491
2.88258
2.87051
2.85868
2.84708
2.83572
2.82458
2.81367
2.80297
2.79247
2.78219
2.7721
2.76221
2.75251
2.743
2.73366
3.52642
3.49969
3.47361
3.44818
3.42337
3.39917
3.37556
3.35252
3.33004
3.30809
3.28666
3.26574
3.24531
3.22535
3.20586
3.18681
3.16819
3.15
3.13222
3.11483
3.09783
3.08121
3.06495
3.04904
3.03348
3.01826
3.00336
2.98878
2.9745
2.96053
2.94685
2.93346
2.92034
2.9075
2.89491
2.88259
2.87051
2.85868
2.84709
2.83572
2.82459
2.81367
2.80297
2.79248
2.7822
2.77211
2.76223
2.75253
2.74302
2.73368
3.52642
3.49969
3.47361
3.44818
3.42337
3.39917
3.37556
3.35252
3.33004
3.30809
3.28667
3.26574
3.24531
3.22536
3.20586
3.18681
3.1682
3.15001
3.13222
3.11484
3.09784
3.08121
3.06495
3.04905
3.03349
3.01827
3.00337
2.98879
2.97452
2.96055
2.94687
2.93348
2.92037
2.90753
2.89495
2.88263
2.87056
2.85873
2.84714
2.83579
2.82466
2.81375
2.80306
2.79258
2.7823
2.77223
2.76235
2.75266
2.74316
2.73384
3.52642
3.49969
3.47361
3.44818
3.42337
3.39917
3.37556
3.35252
3.33004
3.3081
3.28667
3.26575
3.24532
3.22536
3.20587
3.18682
3.16821
3.15002
3.13224
3.11485
3.09786
3.08124
3.06498
3.04908
3.03353
3.01831
3.00342
2.98885
2.97459
2.96063
2.94697
2.93359
2.92049
2.90767
2.8951
2.8828
2.87075
2.85895
2.84738
2.83605
2.82495
2.81407
2.80341
2.79296
2.78272
2.77268
2.76283
2.75318
2.74372
2.73444
3.52642
3.49969
3.47361
3.44818
3.42337
3.39917
3.37556
3.35253
3.33005
3.3081
3.28668
3.26576
3.24533
3.22538
3.20589
3.18685
3.16824
3.15006
3.13229
3.11492
3.09793
3.08133
3.0651
3.04922
3.03369
3.01851
3.00365
2.98911
2.97489
2.96098
2.94736
2.93404
2.921
2.90823
2.89573
2.8835
2.87152
2.85979
2.84831
2.83706
2.82605
2.81526
2.80469
2.79434
2.7842
2.77426
2.76452
2.75498
2.74563
2.73647
3.52642
3.49969
3.47361
3.44818
3.42337
3.39918
3.37557
3.35254
3.33006
3.30812
3.28671
3.2658
3.24539
3.22545
3.20599
3.18698
3.1684
3.15026
3.13254
3.11523
3.09832
3.08179
3.06564
3.04986
3.03444
3.01937
3.00464
2.99024
2.97617
2.96242
2.94897
2.93583
2.92298
2.91041
2.89812
2.88611
2.87436
2.86286
2.85162
2.84062
2.82987
2.81934
2.80904
2.79896
2.7891
2.77945
2.77
2.76075
2.75169
2.74283
3.52642
3.49969
3.47361
3.44818
3.42338
3.39919
3.3756
3.35258
3.33012
3.30822
3.28685
3.266
3.24567
3.22584
3.20649
3.18763
3.16923
3.15129
3.1338
3.11674
3.10011
3.0839
3.0681
3.05269
3.03767
3.02303
3.00875
2.99484
2.98127
2.96804
2.95514
2.94256
2.93029
2.91832
2.90665
2.89526
2.88414
2.8733
2.86272
2.85239
2.8423
2.83245
2.82284
2.81345
2.80427
2.79531
2.78655
2.77799
2.76963
2.76145
3.52642
3.49969
3.47362
3.4482
3.42343
3.3993
3.37579
3.35291
3.33064
3.30897
3.28791
3.26743
3.24754
3.22823
3.20949
3.19131
3.17368
3.15659
3.14003
3.12398
3.10842
3.09336
3.07876
3.06462
3.05091
3.03764
3.02477
3.0123
3.0002
2.98848
2.9771
2.96607
2.95536
2.94496
2.93487
2.92506
2.91553
2.90627
2.89726
2.8885
2.87997
2.87167
2.86359
2.85572
2.84805
2.84058
2.83329
2.82618
2.81924
2.81248
3.52642
3.4997
3.47371
3.44846
3.42399
3.40031
3.37744
3.35541
3.33424
3.31392
3.29446
3.27586
3.25809
3.24114
3.22498
3.20959
3.19494
3.18099
3.16771
3.15506
3.14303
3.13156
3.12063
3.1102
3.10026
3.09076
3.08168
3.07299
3.06467
3.0567
3.04905
3.0417
3.03463
3.02783
3.02128
3.01496
3.00886
3.00297
2.99727
2.99174
2.98639
2.98119
2.97615
2.97124
2.96647
2.96182
2.95729
2.95288
2.94857
2.94436
3.52642
3.49991
3.4747
3.4511
3.42923
3.40913
3.39079
3.37416
3.35918
3.34578
3.33388
3.32338
3.31417
3.30615
3.29922
3.29327
3.28821
3.28393
3.28036
3.27742
3.27502
3.27311
3.27161
3.27048
3.26967
3.26912
3.26881
3.26868
3.26872
3.26889
3.26916
3.26952
3.26994
3.2704
3.2709
3.27141
3.27192
3.27243
3.27293
3.2734
3.27385
3.27426
3.27463
3.27496
3.27524
3.27548
3.27566
3.2758
3.27588
3.27591
3.52671
3.50552
3.49141
3.48336
3.48048
3.48217
3.48785
3.49699
3.50905
3.52355
3.54005
3.55815
3.5775
3.5978
3.61878
3.64022
3.66194
3.68378
3.70559
3.72727
3.74873
3.76988
3.79067
3.81104
3.83095
3.85037
3.86928
3.88765
3.90548
3.92274
3.93945
3.95559
3.97116
3.98618
4.00065
4.01457
4.02795
4.04081
4.05315
4.06499
4.07633
4.08719
4.09759
4.10753
4.11704
4.12612
4.13479
4.14306
4.15094
4.15845
3.54382
3.5947
3.68155
3.78458
3.8957
4.01158
4.13034
4.25059
4.37119
4.49131
4.6103
4.72767
4.84304
4.95613
5.06674
5.17473
5.27999
5.38246
5.4821
5.57892
5.6729
5.76407
5.85245
5.93809
6.02103
6.10132
6.179
6.25415
6.32683
6.39708
6.46499
6.53062
6.59402
6.65528
6.71446
6.77163
6.82685
6.88019
6.93173
6.98152
7.02963
7.07613
7.12108
7.16455
7.20658
7.24726
7.28662
7.32475
7.36168
7.39752
4.18275
5.27405
6.21226
7.06493
7.89285
8.70708
9.50486
10.284
11.0445
11.787
12.5125
13.222
13.9164
14.5963
15.2625
15.9152
16.5547
17.1811
17.7945
18.3948
18.982
19.556
20.1167
20.6639
21.1977
21.718
22.2248
22.7181
23.198
23.6645
24.1179
24.5582
24.9857
25.4006
25.8031
26.1934
26.572
26.939
27.2948
27.6397
27.9741
28.2982
28.6125
28.9171
29.2126
29.4991
29.7771
30.0468
30.3084
30.5626
45.5315
49.7877
54.1998
58.7146
63.3007
67.9412
72.6196
77.3189
82.0215
86.7109
91.3709
95.9866
100.544
105.03
109.432
113.742
117.949
122.045
126.023
129.879
133.607
137.204
140.667
143.995
147.187
150.243
153.164
155.95
158.603
161.126
163.521
165.792
167.94
169.97
171.886
173.69
175.387
176.981
178.476
179.875
181.182
182.402
183.537
184.593
185.572
186.478
187.315
188.085
188.793
189.442
148.822
332.977
535.432
714.369
847.406
928.847
964.672
966.426
946.053
913.313
875.032
835.406
796.706
759.986
725.62
693.642
663.939
636.351
610.707
586.845
564.614
543.874
524.496
506.365
489.371
473.421
458.428
444.315
431.011
418.451
406.577
395.334
384.673
374.551
364.931
355.778
347.055
338.722
330.73
323.024
315.54
308.216
300.99
293.811
286.634
279.428
272.171
264.846
257.439
249.937
242.326
234.59
226.712
218.676
210.467
202.073
193.488
184.712
175.751
166.62
157.341
147.945
138.471
128.969
119.494
110.111
100.891
91.9091
83.2429
74.9684
67.1575
59.874
53.1705
47.0853
41.6405
36.8417
32.6781
29.1253
26.148
23.7046
21.7513
20.2465
19.1549
18.4498
18.1163
18.1526
18.5708
19.397
20.6689
22.4324
24.7358
27.6188
31.0953
35.1514
39.7989
45.1374
51.2596
57.9971
64.8362
71.1458
76.4448
80.4961
83.2634
84.8305
85.3366
84.9367
83.7814
82.0082
79.7385
77.0779
74.1173
70.935
67.5978
64.1631
60.6798
57.1895
53.7275
50.3234
47.0017
43.7826
40.6821
37.7129
34.8844
32.2033
29.6742
27.2994
25.0797
23.0144
21.1007
19.3341
17.7078
16.2133
14.8408
13.5813
12.4285
11.3808
10.4433
9.62317
8.91357
8.28856
7.75168
7.37295
7.19311
7.16041
7.19729
7.25321
7.30575
7.34713
7.37748
7.3954
81.7468
95.5912
121.637
159.612
207.193
260.385
314.586
365.594
410.229
446.601
474.072
492.998
504.375
509.498
509.71
506.234
500.096
492.104
482.868
472.835
462.32
451.549
440.683
429.835
419.091
408.512
398.143
388.017
378.155
368.567
359.26
350.23
341.475
332.989
324.769
316.807
309.089
301.596
294.295
287.144
280.094
273.09
266.082
259.03
251.902
244.683
237.367
229.953
222.446
214.848
207.161
199.38
191.499
183.508
175.4
167.17
158.817
150.348
141.776
133.123
124.42
115.704
107.022
98.4277
89.9819
81.7492
73.7972
66.1938
59.0041
52.2873
46.093
40.4585
35.4064
30.9432
27.0596
23.7319
20.9244
18.5939
16.6928
15.1741
13.9942
13.1162
12.5116
12.1626
12.0625
12.2176
12.6481
13.3891
14.4904
16.0149
18.0344
20.6185
23.813
27.6357
32.1315
37.4269
43.608
50.4564
57.3994
63.7748
69.1015
73.1583
75.9265
77.5034
78.0368
77.6862
76.6041
74.9278
72.7781
70.2591
67.4602
64.4576
61.3163
58.0918
54.8309
51.5733
48.3522
45.1952
42.125
39.1598
36.3139
33.5983
31.0208
28.5867
26.2993
24.1599
22.1683
20.3232
18.6214
17.058
15.6262
14.3169
13.1196
12.024
11.0217
10.1095
9.29079
8.57123
7.94549
7.397
6.94791
6.67629
6.6035
6.6575
6.75802
6.86064
6.94924
7.02023
7.07551
7.12329
43.3949
44.6061
47.0324
51.3984
58.0888
67.3476
79.2585
93.6929
110.332
128.692
148.172
168.11
187.843
206.757
224.337
240.184
254.032
265.743
275.295
282.761
288.283
292.046
294.259
295.132
294.865
293.639
291.615
288.93
285.7
282.023
277.979
273.637
269.055
264.285
259.37
254.347
249.241
244.066
238.821
233.49
228.048
222.466
216.715
210.774
204.634
198.299
191.783
185.106
178.293
171.365
164.339
157.228
150.038
142.772
135.433
128.026
120.558
113.044
105.506
97.9732
90.482
83.0762
75.8054
68.7237
61.888
55.3554
49.181
43.4149
38.0995
33.2663
28.9342
25.1083
21.7792
18.9246
16.5118
14.5003
12.8456
11.5029
10.4299
9.58889
8.94847
8.48432
8.17975
8.02613
8.02354
8.18182
8.5222
9.07933
9.9034
11.0616
12.638
14.7257
17.4062
20.7388
24.8095
29.779
35.7465
42.4778
49.369
55.7312
61.0693
65.158
67.9792
69.6318
70.2642
70.036
69.0987
67.5882
65.6235
63.3068
60.7257
57.9543
55.0558
52.0836
49.0827
46.0906
43.1388
40.2532
37.4544
34.7591
32.1801
29.7268
27.4058
25.2213
23.1754
21.2688
19.5005
17.8686
16.3701
15.0001
13.752
12.6171
11.585
10.6443
9.78535
9.00237
8.29598
7.66991
7.12077
6.64222
6.27181
6.0902
6.10206
6.2226
6.37194
6.51108
6.62858
6.72392
6.80014
6.87339
22.3453
22.8158
23.346
24.0324
24.9937
26.3508
28.1881
30.5974
33.6572
37.4306
41.9641
47.2848
53.3967
60.2762
67.8682
76.0838
84.8011
93.8687
103.113
112.346
121.381
130.037
138.156
145.605
152.289
158.142
163.136
167.27
170.568
173.069
174.824
175.892
176.333
176.207
175.574
174.487
172.993
171.127
168.911
166.355
163.458
160.214
156.619
152.672
148.387
143.787
138.905
133.78
128.455
122.969
117.356
111.646
105.859
100.013
94.1229
88.204
82.2743
76.3564
70.4781
64.6727
58.9787
53.4383
48.096
42.9966
38.1829
33.6935
29.5604
25.8067
22.4454
19.4785
16.8968
14.6812
12.8044
11.2334
9.93264
8.86604
7.99958
7.30263
6.7489
6.31685
5.98969
5.75538
5.60655
5.54065
5.56044
5.6749
5.90084
6.26524
6.80831
7.58714
8.67964
10.1841
12.2052
14.8417
18.2263
22.5719
28.0281
34.3892
41.0485
47.2941
52.603
56.7271
59.6324
61.4074
62.1936
62.1453
61.4101
60.121
58.3939
56.3287
54.0103
51.5111
48.8919
46.2043
43.4912
40.7886
38.126
35.5275
33.0124
30.5959
28.2893
26.101
24.0364
22.099
20.29
18.6095
17.0562
15.6279
14.3215
13.1325
12.0552
11.0818
10.2025
9.40626
8.68241
8.02298
7.42516
6.8895
6.41322
5.99874
5.69657
5.58847
5.66643
5.83805
6.02525
6.19343
6.33458
6.45032
6.54446
6.6398
12.4038
12.6477
12.8918
13.1435
13.4172
13.7345
14.1186
14.5909
15.1757
15.8978
16.7813
17.8502
19.128
20.6379
22.4024
24.443
26.7787
29.4246
32.3896
35.6743
39.2685
43.15
47.283
51.6184
56.0952
60.6431
65.1851
69.6425
73.9381
78.0003
81.766
85.1831
88.212
90.826
93.0107
94.7616
96.0807
96.9726
97.4409
97.4857
97.1045
96.2937
95.0529
93.3888
91.3188
88.8713
86.085
83.0057
79.6819
76.1611
72.4871
68.6976
64.8247
60.8957
56.9348
52.9649
49.0098
45.095
41.2482
37.4994
33.8801
30.4215
27.1534
24.1022
21.2895
18.7306
16.4336
14.3992
12.6205
11.0844
9.77272
8.66373
7.73416
6.96062
6.32091
5.79489
5.36493
5.01613
4.73626
4.5157
4.34721
4.22592
4.14925
4.11713
4.13236
4.2013
4.33511
4.55149
4.87744
5.35292
6.03623
7.00894
8.3722