/*--------------------------------*- C++ -*----------------------------------*\
| =========                 |                                                 |
| \\      /  F ield         | OpenFOAM: The Open Source CFD Toolbox           |
|  \\    /   O peration     | Version:  5.x                                   |
|   \\  /    A nd           | Web:      www.OpenFOAM.org                      |
|    \\/     M anipulation  |                                                 |
\*---------------------------------------------------------------------------*/
FoamFile
{
    version     2.0;
    format      ascii;
    class       volScalarField;
    location    "600";
    object      k;
}
// * * * * * * * * * * * * * * * * * * * * * * * * * * * * * * * * * * * * * //

dimensions      [0 2 -2 0 0 0 0];

internalField   nonuniform List<scalar> 
15000
(
0.19654
0.190708
0.184979
0.178939
0.172743
0.166691
0.161037
0.155956
0.151545
0.14785
0.144878
0.142608
0.141002
0.140013
0.139586
0.139662
0.140182
0.14109
0.14233
0.14385
0.145603
0.147546
0.149639
0.151847
0.15414
0.156491
0.158878
0.16128
0.163681
0.166068
0.168427
0.17075
0.17303
0.17526
0.177437
0.179555
0.181613
0.18361
0.185545
0.187416
0.189226
0.190973
0.192661
0.194284
0.195867
0.197311
0.19908
0.198993
0.207373
0.174984
0.216509
0.227281
0.223959
0.216807
0.210471
0.206317
0.204461
0.204625
0.206448
0.20959
0.213759
0.218706
0.224227
0.230149
0.236331
0.242655
0.249025
0.255364
0.26161
0.267717
0.273647
0.279375
0.284883
0.29016
0.2952
0.3
0.304565
0.308897
0.313003
0.316891
0.32057
0.32405
0.32734
0.33045
0.33339
0.33617
0.338798
0.341284
0.343637
0.345864
0.347975
0.349977
0.351877
0.353686
0.355417
0.357061
0.358768
0.360108
0.362901
0.362378
0.204373
0.212606
0.214889
0.213325
0.210358
0.207244
0.204496
0.202295
0.200698
0.199706
0.199299
0.19944
0.200086
0.201185
0.202686
0.204536
0.206682
0.209075
0.21167
0.214425
0.217304
0.220272
0.223302
0.226368
0.229449
0.232528
0.235589
0.23862
0.241611
0.244554
0.247443
0.250273
0.253041
0.255744
0.258381
0.260951
0.263453
0.265887
0.268256
0.270559
0.272798
0.274975
0.277092
0.279151
0.281161
0.283115
0.285054
0.286913
0.288846
0.290514
0.20049
0.203023
0.20493
0.205443
0.204871
0.203683
0.202217
0.200681
0.199199
0.197843
0.196658
0.19567
0.19489
0.194322
0.193964
0.193806
0.193837
0.194045
0.194413
0.194927
0.195571
0.19633
0.197189
0.198137
0.19916
0.200247
0.201387
0.202573
0.203796
0.205048
0.206323
0.207616
0.208921
0.210235
0.211553
0.212873
0.214192
0.215506
0.216816
0.218118
0.219411
0.220695
0.221968
0.223231
0.224485
0.225729
0.226971
0.228201
0.229433
0.230646
0.199751
0.200027
0.20062
0.200996
0.200947
0.200501
0.199764
0.198843
0.197823
0.196766
0.195716
0.194704
0.193752
0.192877
0.192086
0.191386
0.190779
0.190265
0.189842
0.189505
0.18925
0.189073
0.188967
0.188927
0.188948
0.189023
0.189149
0.189319
0.18953
0.189777
0.190057
0.190366
0.1907
0.191058
0.191436
0.191832
0.192244
0.19267
0.193108
0.193558
0.194017
0.194485
0.194961
0.195443
0.195933
0.196429
0.196932
0.19744
0.197953
0.198463
0.199618
0.199136
0.198932
0.198828
0.19866
0.198344
0.197867
0.197253
0.196534
0.195744
0.194911
0.19406
0.193208
0.192371
0.191559
0.19078
0.190041
0.189346
0.188696
0.188093
0.187538
0.187028
0.186563
0.186142
0.185761
0.185419
0.185114
0.184843
0.184603
0.184393
0.18421
0.184053
0.183919
0.183807
0.183715
0.183641
0.183584
0.183543
0.183517
0.183504
0.183503
0.183514
0.183537
0.183569
0.183612
0.183663
0.183724
0.183793
0.183867
0.183945
0.1996
0.198891
0.198323
0.197872
0.197473
0.197064
0.196606
0.196084
0.195498
0.194858
0.194175
0.193463
0.192731
0.191991
0.191251
0.190519
0.189799
0.189096
0.188415
0.187757
0.187124
0.186518
0.185938
0.185385
0.184859
0.184359
0.183884
0.183434
0.183007
0.182603
0.18222
0.181857
0.181514
0.181188
0.18088
0.180588
0.180311
0.180049
0.1798
0.179564
0.17934
0.179128
0.178926
0.178735
0.178554
0.178382
0.178219
0.178064
0.177916
0.177774
0.1996
0.198831
0.198124
0.19749
0.196918
0.196382
0.195855
0.195318
0.19476
0.194176
0.193568
0.192937
0.19229
0.191631
0.190965
0.190296
0.189629
0.188968
0.188315
0.187673
0.187044
0.186429
0.18583
0.185247
0.184681
0.184133
0.183601
0.183088
0.182591
0.18211
0.181647
0.181198
0.180766
0.180348
0.179944
0.179553
0.179176
0.178812
0.178459
0.178119
0.177789
0.177469
0.17716
0.176861
0.176571
0.17629
0.176018
0.175754
0.175497
0.175247
0.1996
0.198817
0.198065
0.197353
0.196685
0.196055
0.195453
0.194867
0.194286
0.193704
0.193116
0.192521
0.191917
0.191307
0.190692
0.190074
0.189456
0.188839
0.188225
0.187617
0.187015
0.186422
0.185838
0.185265
0.184702
0.184151
0.183612
0.183086
0.182571
0.182069
0.18158
0.181102
0.180637
0.180184
0.179742
0.179312
0.178893
0.178484
0.178086
0.177698
0.177321
0.176952
0.176593
0.176243
0.175902
0.17557
0.175245
0.174928
0.174619
0.174316
0.199601
0.198814
0.198048
0.197308
0.196596
0.195914
0.195259
0.194627
0.194013
0.19341
0.192814
0.192223
0.191633
0.191045
0.190457
0.18987
0.189284
0.1887
0.188119
0.187543
0.186971
0.186404
0.185845
0.185292
0.184748
0.184211
0.183684
0.183165
0.182656
0.182157
0.181667
0.181186
0.180716
0.180255
0.179804
0.179362
0.17893
0.178507
0.178093
0.177688
0.177292
0.176904
0.176525
0.176154
0.17579
0.175435
0.175088
0.174747
0.174414
0.174088
0.199601
0.198813
0.198043
0.197293
0.196564
0.195858
0.195174
0.194512
0.193869
0.193243
0.192631
0.19203
0.191438
0.190853
0.190274
0.189701
0.189132
0.188568
0.188009
0.187455
0.186906
0.186362
0.185824
0.185293
0.184768
0.18425
0.183739
0.183236
0.18274
0.182252
0.181772
0.181301
0.180837
0.180381
0.179934
0.179495
0.179064
0.178641
0.178226
0.177818
0.177419
0.177027
0.176643
0.176266
0.175897
0.175535
0.175179
0.174831
0.17449
0.174155
0.199601
0.198813
0.198042
0.197288
0.196553
0.195837
0.195139
0.19446
0.1938
0.193156
0.192529
0.191916
0.191315
0.190726
0.190146
0.189575
0.189013
0.188458
0.18791
0.187368
0.186833
0.186305
0.185783
0.185268
0.184759
0.184257
0.183762
0.183274
0.182792
0.182318
0.181851
0.181391
0.180939
0.180493
0.180055
0.179624
0.1792
0.178784
0.178374
0.177972
0.177577
0.177189
0.176808
0.176433
0.176065
0.175705
0.17535
0.175002
0.174661
0.174326
0.199601
0.198812
0.198041
0.197287
0.196549
0.195829
0.195125
0.194438
0.193768
0.193115
0.192477
0.191854
0.191244
0.190648
0.190064
0.189491
0.188928
0.188375
0.18783
0.187295
0.186767
0.186247
0.185735
0.18523
0.184732
0.184242
0.183759
0.183282
0.182813
0.18235
0.181895
0.181446
0.181004
0.180569
0.180141
0.17972
0.179306
0.178898
0.178497
0.178102
0.177714
0.177333
0.176958
0.176589
0.176227
0.175871
0.175522
0.175178
0.174841
0.174509
0.1996
0.198812
0.19804
0.197286
0.196547
0.195825
0.195119
0.194429
0.193755
0.193096
0.192452
0.191822
0.191206
0.190604
0.190015
0.189438
0.188872
0.188318
0.187773
0.187239
0.186713
0.186197
0.185689
0.18519
0.184699
0.184215
0.18374
0.183271
0.18281
0.182357
0.18191
0.18147
0.181037
0.180611
0.180192
0.17978
0.179374
0.178974
0.178581
0.178195
0.177814
0.17744
0.177073
0.176711
0.176355
0.176006
0.175662
0.175325
0.174993
0.174667
0.1996
0.198812
0.19804
0.197285
0.196546
0.195823
0.195116
0.194425
0.193748
0.193087
0.192439
0.191806
0.191187
0.190581
0.189988
0.189407
0.188838
0.188281
0.187735
0.1872
0.186674
0.186159
0.185652
0.185155
0.184667
0.184187
0.183715
0.183252
0.182796
0.182348
0.181907
0.181473
0.181047
0.180627
0.180215
0.179809
0.17941
0.179017
0.178631
0.178251
0.177878
0.17751
0.177149
0.176794
0.176445
0.176101
0.175764
0.175432
0.175106
0.174785
0.1996
0.198811
0.198039
0.197284
0.196545
0.195822
0.195115
0.194422
0.193745
0.193082
0.192433
0.191798
0.191177
0.190568
0.189973
0.18939
0.188819
0.188259
0.187711
0.187174
0.186648
0.186132
0.185625
0.185128
0.184641
0.184162
0.183692
0.183231
0.182778
0.182332
0.181895
0.181465
0.181043
0.180627
0.180219
0.179818
0.179424
0.179036
0.178655
0.17828
0.177912
0.177549
0.177193
0.176843
0.176499
0.176161
0.175828
0.175502
0.17518
0.174865
0.1996
0.198811
0.198039
0.197284
0.196544
0.195821
0.195113
0.194421
0.193743
0.193079
0.19243
0.191794
0.191171
0.190562
0.189965
0.18938
0.188807
0.188246
0.187697
0.187158
0.186631
0.186113
0.185606
0.185109
0.184621
0.184143
0.183673
0.183212
0.18276
0.182316
0.18188
0.181452
0.181032
0.180619
0.180214
0.179815
0.179424
0.179039
0.178661
0.17829
0.177925
0.177567
0.177214
0.176868
0.176528
0.176193
0.175865
0.175542
0.175224
0.174912
0.1996
0.198811
0.198039
0.197283
0.196544
0.19582
0.195112
0.194419
0.193741
0.193077
0.192427
0.191791
0.191168
0.190557
0.18996
0.189374
0.1888
0.188239
0.187688
0.187149
0.18662
0.186102
0.185594
0.185096
0.184607
0.184128
0.183659
0.183198
0.182746
0.182302
0.181867
0.181439
0.18102
0.180608
0.180204
0.179807
0.179417
0.179035
0.178659
0.178289
0.177927
0.17757
0.17722
0.176876
0.176539
0.176207
0.175881
0.17556
0.175246
0.174937
0.1996
0.198811
0.198039
0.197283
0.196543
0.19582
0.195111
0.194418
0.19374
0.193076
0.192425
0.191789
0.191165
0.190554
0.189956
0.18937
0.188796
0.188233
0.187682
0.187142
0.186613
0.186094
0.185585
0.185086
0.184597
0.184118
0.183648
0.183187
0.182734
0.182291
0.181855
0.181428
0.181009
0.180598
0.180194
0.179797
0.179408
0.179026
0.178651
0.178283
0.177921
0.177566
0.177218
0.176875
0.176539
0.176209
0.175884
0.175566
0.175253
0.174945
0.1996
0.198811
0.198038
0.197282
0.196543
0.195819
0.195111
0.194417
0.193739
0.193074
0.192424
0.191787
0.191163
0.190552
0.189953
0.189367
0.188793
0.18823
0.187678
0.187137
0.186608
0.186088
0.185579
0.18508
0.184591
0.184111
0.18364
0.183179
0.182726
0.182282
0.181846
0.181419
0.181
0.180588
0.180184
0.179788
0.179399
0.179017
0.178643
0.178275
0.177914
0.177559
0.177211
0.176869
0.176534
0.176204
0.175881
0.175563
0.175251
0.174944
0.1996
0.198811
0.198038
0.197282
0.196542
0.195818
0.19511
0.194416
0.193738
0.193073
0.192422
0.191785
0.191161
0.19055
0.189951
0.189365
0.18879
0.188227
0.187675
0.187134
0.186604
0.186084
0.185575
0.185075
0.184585
0.184105
0.183634
0.183172
0.182719
0.182275
0.181839
0.181411
0.180992
0.18058
0.180176
0.17978
0.179391
0.179009
0.178634
0.178267
0.177906
0.177551
0.177203
0.176862
0.176526
0.176197
0.175874
0.175556
0.175245
0.174939
0.1996
0.198811
0.198038
0.197282
0.196542
0.195818
0.195109
0.194416
0.193737
0.193072
0.192421
0.191784
0.19116
0.190548
0.189949
0.189362
0.188787
0.188224
0.187672
0.187131
0.1866
0.186081
0.185571
0.185071
0.184581
0.184101
0.183629
0.183167
0.182714
0.182269
0.181833
0.181405
0.180985
0.180574
0.180169
0.179773
0.179384
0.179002
0.178627
0.178259
0.177898
0.177543
0.177195
0.176854
0.176518
0.176189
0.175866
0.175548
0.175237
0.174931
0.1996
0.198811
0.198038
0.197282
0.196542
0.195818
0.195109
0.194415
0.193736
0.193071
0.19242
0.191783
0.191158
0.190547
0.189947
0.189361
0.188785
0.188222
0.18767
0.187128
0.186598
0.186078
0.185568
0.185068
0.184577
0.184097
0.183625
0.183163
0.182709
0.182265
0.181828
0.1814
0.18098
0.180568
0.180164
0.179767
0.179377
0.178995
0.17862
0.178252
0.177891
0.177536
0.177188
0.176846
0.176511
0.176181
0.175858
0.17554
0.175228
0.174922
0.1996
0.198811
0.198038
0.197282
0.196541
0.195817
0.195108
0.194415
0.193735
0.19307
0.192419
0.191781
0.191157
0.190545
0.189946
0.189359
0.188784
0.18822
0.187667
0.187126
0.186595
0.186075
0.185565
0.185065
0.184574
0.184093
0.183622
0.183159
0.182706
0.18226
0.181824
0.181396
0.180975
0.180563
0.180158
0.179761
0.179372
0.178989
0.178614
0.178246
0.177884
0.177529
0.177181
0.176839
0.176503
0.176174
0.17585
0.175532
0.17522
0.174914
0.1996
0.19881
0.198038
0.197281
0.196541
0.195817
0.195108
0.194414
0.193735
0.19307
0.192418
0.19178
0.191156
0.190544
0.189944
0.189357
0.188782
0.188218
0.187665
0.187124
0.186593
0.186072
0.185562
0.185062
0.184571
0.18409
0.183619
0.183156
0.182702
0.182257
0.18182
0.181392
0.180971
0.180559
0.180154
0.179757
0.179367
0.178984
0.178609
0.17824
0.177878
0.177523
0.177175
0.176833
0.176497
0.176167
0.175843
0.175525
0.175212
0.174906
0.1996
0.19881
0.198038
0.197281
0.196541
0.195817
0.195108
0.194414
0.193734
0.193069
0.192417
0.19178
0.191155
0.190543
0.189943
0.189356
0.18878
0.188216
0.187664
0.187122
0.186591
0.18607
0.18556
0.18506
0.184569
0.184088
0.183616
0.183153
0.182699
0.182253
0.181817
0.181388
0.180967
0.180555
0.18015
0.179752
0.179362
0.17898
0.178604
0.178235
0.177873
0.177518
0.177169
0.176827
0.17649
0.17616
0.175836
0.175518
0.175205
0.174898
0.1996
0.19881
0.198037
0.197281
0.196541
0.195816
0.195107
0.194413
0.193734
0.193068
0.192417
0.191779
0.191154
0.190542
0.189942
0.189355
0.188779
0.188215
0.187662
0.18712
0.186589
0.186068
0.185558
0.185057
0.184566
0.184085
0.183613
0.18315
0.182696
0.18225
0.181813
0.181384
0.180964
0.180551
0.180146
0.179748
0.179358
0.178975
0.178599
0.17823
0.177868
0.177513
0.177164
0.176821
0.176484
0.176154
0.17583
0.175511
0.175198
0.174891
0.1996
0.19881
0.198037
0.197281
0.196541
0.195816
0.195107
0.194413
0.193733
0.193068
0.192416
0.191778
0.191153
0.190541
0.189941
0.189353
0.188778
0.188213
0.187661
0.187119
0.186587
0.186066
0.185556
0.185055
0.184564
0.184083
0.183611
0.183147
0.182693
0.182247
0.18181
0.181381
0.18096
0.180547
0.180142
0.179744
0.179354
0.178971
0.178595
0.178226
0.177864
0.177508
0.177159
0.176816
0.176479
0.176148
0.175824
0.175505
0.175192
0.174884
0.1996
0.19881
0.198037
0.197281
0.196541
0.195816
0.195107
0.194412
0.193733
0.193067
0.192416
0.191777
0.191152
0.19054
0.18994
0.189352
0.188777
0.188212
0.187659
0.187117
0.186586
0.186065
0.185554
0.185053
0.184562
0.184081
0.183608
0.183145
0.182691
0.182245
0.181807
0.181378
0.180957
0.180544
0.180139
0.179741
0.17935
0.178967
0.178591
0.178222
0.177859
0.177503
0.177154
0.176811
0.176474
0.176143
0.175818
0.175499
0.175186
0.174878
0.1996
0.19881
0.198037
0.197281
0.19654
0.195816
0.195107
0.194412
0.193732
0.193067
0.192415
0.191777
0.191152
0.190539
0.189939
0.189351
0.188776
0.188211
0.187658
0.187116
0.186584
0.186063
0.185552
0.185051
0.18456
0.184079
0.183606
0.183143
0.182688
0.182242
0.181805
0.181376
0.180954
0.180541
0.180136
0.179738
0.179347
0.178964
0.178587
0.178218
0.177855
0.177499
0.177149
0.176806
0.176469
0.176138
0.175813
0.175494
0.17518
0.174872
0.1996
0.19881
0.198037
0.197281
0.19654
0.195816
0.195106
0.194412
0.193732
0.193066
0.192415
0.191776
0.191151
0.190539
0.189939
0.189351
0.188775
0.18821
0.187657
0.187114
0.186583
0.186062
0.185551
0.18505
0.184558
0.184077
0.183604
0.183141
0.182686
0.18224
0.181802
0.181373
0.180952
0.180538
0.180133
0.179734
0.179344
0.17896
0.178584
0.178214
0.177851
0.177495
0.177145
0.176802
0.176464
0.176133
0.175808
0.175488
0.175175
0.174866
0.1996
0.19881
0.198037
0.197281
0.19654
0.195816
0.195106
0.194412
0.193732
0.193066
0.192414
0.191776
0.19115
0.190538
0.189938
0.18935
0.188774
0.188209
0.187656
0.187113
0.186582
0.18606
0.185549
0.185048
0.184557
0.184075
0.183602
0.183139
0.182684
0.182238
0.1818
0.181371
0.180949
0.180536
0.18013
0.179732
0.179341
0.178957
0.17858
0.17821
0.177847
0.177491
0.177141
0.176797
0.17646
0.176128
0.175803
0.175483
0.175169
0.174861
0.1996
0.19881
0.198037
0.197281
0.19654
0.195815
0.195106
0.194412
0.193732
0.193066
0.192414
0.191775
0.19115
0.190537
0.189937
0.189349
0.188773
0.188208
0.187655
0.187112
0.186581
0.186059
0.185548
0.185047
0.184555
0.184073
0.183601
0.183137
0.182682
0.182236
0.181798
0.181368
0.180947
0.180533
0.180127
0.179729
0.179338
0.178954
0.178577
0.178207
0.177844
0.177487
0.177137
0.176793
0.176456
0.176124
0.175798
0.175479
0.175164
0.174856
0.1996
0.19881
0.198037
0.197281
0.19654
0.195815
0.195106
0.194411
0.193731
0.193066
0.192414
0.191775
0.19115
0.190537
0.189937
0.189349
0.188772
0.188207
0.187654
0.187111
0.18658
0.186058
0.185547
0.185046
0.184554
0.184072
0.183599
0.183135
0.18268
0.182234
0.181796
0.181366
0.180945
0.180531
0.180125
0.179726
0.179335
0.178951
0.178574
0.178204
0.177841
0.177484
0.177133
0.176789
0.176452
0.17612
0.175794
0.175474
0.17516
0.174851
0.1996
0.19881
0.198037
0.19728
0.19654
0.195815
0.195106
0.194411
0.193731
0.193065
0.192413
0.191775
0.191149
0.190536
0.189936
0.189348
0.188772
0.188207
0.187653
0.187111
0.186579
0.186057
0.185546
0.185044
0.184553
0.184071
0.183598
0.183134
0.182679
0.182232
0.181794
0.181364
0.180943
0.180529
0.180122
0.179724
0.179332
0.178948
0.178571
0.178201
0.177837
0.17748
0.17713
0.176786
0.176448
0.176116
0.17579
0.17547
0.175155
0.174846
0.1996
0.19881
0.198037
0.19728
0.19654
0.195815
0.195106
0.194411
0.193731
0.193065
0.192413
0.191774
0.191149
0.190536
0.189936
0.189347
0.188771
0.188206
0.187652
0.18711
0.186578
0.186056
0.185545
0.185043
0.184552
0.184069
0.183596
0.183132
0.182677
0.182231
0.181792
0.181362
0.180941
0.180527
0.18012
0.179721
0.17933
0.178946
0.178568
0.178198
0.177834
0.177477
0.177127
0.176783
0.176444
0.176112
0.175786
0.175466
0.175151
0.174842
0.1996
0.19881
0.198037
0.19728
0.19654
0.195815
0.195106
0.194411
0.193731
0.193065
0.192413
0.191774
0.191149
0.190536
0.189935
0.189347
0.188771
0.188206
0.187652
0.187109
0.186577
0.186055
0.185544
0.185042
0.184551
0.184068
0.183595
0.183131
0.182676
0.182229
0.181791
0.181361
0.180939
0.180525
0.180118
0.179719
0.179328
0.178943
0.178566
0.178195
0.177832
0.177475
0.177124
0.176779
0.176441
0.176109
0.175782
0.175462
0.175147
0.174838
0.1996
0.19881
0.198037
0.19728
0.19654
0.195815
0.195106
0.194411
0.193731
0.193065
0.192413
0.191774
0.191148
0.190535
0.189935
0.189347
0.18877
0.188205
0.187651
0.187108
0.186576
0.186055
0.185543
0.185042
0.18455
0.184067
0.183594
0.18313
0.182674
0.182228
0.181789
0.181359
0.180937
0.180523
0.180116
0.179717
0.179326
0.178941
0.178564
0.178193
0.177829
0.177472
0.177121
0.176776
0.176438
0.176106
0.175779
0.175458
0.175143
0.174834
0.1996
0.19881
0.198037
0.19728
0.19654
0.195815
0.195106
0.194411
0.193731
0.193065
0.192413
0.191774
0.191148
0.190535
0.189935
0.189346
0.18877
0.188205
0.187651
0.187108
0.186576
0.186054
0.185542
0.185041
0.184549
0.184066
0.183593
0.183129
0.182673
0.182226
0.181788
0.181358
0.180936
0.180521
0.180115
0.179716
0.179324
0.178939
0.178561
0.178191
0.177827
0.177469
0.177118
0.176774
0.176435
0.176102
0.175776
0.175455
0.17514
0.17483
0.1996
0.19881
0.198037
0.19728
0.19654
0.195815
0.195105
0.194411
0.193731
0.193065
0.192412
0.191774
0.191148
0.190535
0.189934
0.189346
0.188769
0.188204
0.18765
0.187107
0.186575
0.186053
0.185542
0.18504
0.184548
0.184065
0.183592
0.183128
0.182672
0.182225
0.181787
0.181357
0.180934
0.18052
0.180113
0.179714
0.179322
0.178937
0.17856
0.178189
0.177825
0.177467
0.177116
0.176771
0.176432
0.1761
0.175773
0.175452
0.175137
0.174827
0.1996
0.19881
0.198037
0.19728
0.19654
0.195815
0.195105
0.194411
0.193731
0.193065
0.192412
0.191774
0.191148
0.190535
0.189934
0.189346
0.188769
0.188204
0.18765
0.187107
0.186575
0.186053
0.185541
0.185039
0.184547
0.184065
0.183591
0.183127
0.182671
0.182224
0.181786
0.181355
0.180933
0.180519
0.180112
0.179712
0.17932
0.178936
0.178558
0.178187
0.177822
0.177465
0.177114
0.176769
0.17643
0.176097
0.17577
0.175449
0.175134
0.174824
0.1996
0.19881
0.198037
0.19728
0.19654
0.195815
0.195105
0.194411
0.193731
0.193065
0.192412
0.191773
0.191148
0.190535
0.189934
0.189346
0.188769
0.188204
0.18765
0.187107
0.186574
0.186053
0.185541
0.185039
0.184547
0.184064
0.183591
0.183126
0.18267
0.182223
0.181785
0.181354
0.180932
0.180517
0.18011
0.179711
0.179319
0.178934
0.178556
0.178185
0.177821
0.177463
0.177111
0.176766
0.176427
0.176095
0.175768
0.175446
0.175131
0.174821
0.1996
0.19881
0.198037
0.19728
0.19654
0.195815
0.195105
0.194411
0.193731
0.193065
0.192412
0.191773
0.191148
0.190535
0.189934
0.189345
0.188769
0.188204
0.18765
0.187107
0.186574
0.186052
0.18554
0.185039
0.184546
0.184064
0.18359
0.183126
0.18267
0.182223
0.181784
0.181353
0.180931
0.180516
0.180109
0.17971
0.179318
0.178933
0.178555
0.178183
0.177819
0.177461
0.17711
0.176764
0.176425
0.176092
0.175765
0.175444
0.175128
0.174818
0.1996
0.19881
0.198037
0.19728
0.19654
0.195815
0.195105
0.194411
0.193731
0.193065
0.192412
0.191773
0.191148
0.190535
0.189934
0.189345
0.188769
0.188203
0.187649
0.187106
0.186574
0.186052
0.18554
0.185038
0.184546
0.184063
0.18359
0.183125
0.182669
0.182222
0.181783
0.181353
0.18093
0.180515
0.180108
0.179709
0.179317
0.178931
0.178553
0.178182
0.177818
0.17746
0.177108
0.176763
0.176424
0.17609
0.175763
0.175442
0.175126
0.174816
0.1996
0.19881
0.198037
0.19728
0.19654
0.195815
0.195105
0.194411
0.193731
0.193065
0.192412
0.191773
0.191148
0.190535
0.189934
0.189345
0.188769
0.188203
0.187649
0.187106
0.186574
0.186052
0.18554
0.185038
0.184546
0.184063
0.183589
0.183125
0.182669
0.182222
0.181783
0.181352
0.18093
0.180515
0.180108
0.179708
0.179316
0.17893
0.178552
0.178181
0.177816
0.177458
0.177107
0.176761
0.176422
0.176089
0.175761
0.17544
0.175124
0.174814
0.1996
0.19881
0.198037
0.19728
0.19654
0.195815
0.195105
0.194411
0.193731
0.193065
0.192412
0.191773
0.191148
0.190535
0.189934
0.189345
0.188769
0.188203
0.187649
0.187106
0.186574
0.186052
0.18554
0.185038
0.184546
0.184063
0.183589
0.183124
0.182669
0.182221
0.181782
0.181352
0.180929
0.180514
0.180107
0.179707
0.179315
0.17893
0.178551
0.17818
0.177815
0.177457
0.177105
0.17676
0.176421
0.176087
0.17576
0.175438
0.175122
0.174812
0.1996
0.19881
0.198037
0.19728
0.19654
0.195815
0.195106
0.194411
0.193731
0.193065
0.192412
0.191774
0.191148
0.190535
0.189934
0.189345
0.188769
0.188203
0.187649
0.187106
0.186574
0.186052
0.18554
0.185038
0.184545
0.184063
0.183589
0.183124
0.182668
0.182221
0.181782
0.181351
0.180929
0.180514
0.180107
0.179707
0.179314
0.178929
0.178551
0.178179
0.177815
0.177456
0.177105
0.176759
0.17642
0.176086
0.175759
0.175437
0.175121
0.17481
0.1996
0.19881
0.198037
0.19728
0.19654
0.195815
0.195106
0.194411
0.193731
0.193065
0.192412
0.191774
0.191148
0.190535
0.189934
0.189346
0.188769
0.188204
0.18765
0.187106
0.186574
0.186052
0.18554
0.185038
0.184546
0.184063
0.183589
0.183124
0.182668
0.182221
0.181782
0.181351
0.180929
0.180514
0.180107
0.179707
0.179314
0.178929
0.178551
0.178179
0.177814
0.177456
0.177104
0.176758
0.176419
0.176086
0.175758
0.175436
0.17512
0.174809
0.1996
0.19881
0.198037
0.197281
0.19654
0.195815
0.195106
0.194411
0.193731
0.193065
0.192413
0.191774
0.191148
0.190535
0.189934
0.189346
0.188769
0.188204
0.18765
0.187107
0.186574
0.186052
0.18554
0.185038
0.184546
0.184063
0.183589
0.183125
0.182669
0.182221
0.181783
0.181352
0.180929
0.180514
0.180107
0.179707
0.179314
0.178929
0.178551
0.178179
0.177814
0.177456
0.177104
0.176758
0.176419
0.176085
0.175757
0.175435
0.175119
0.174808
0.1996
0.19881
0.198037
0.197281
0.19654
0.195815
0.195106
0.194411
0.193731
0.193065
0.192413
0.191774
0.191148
0.190535
0.189935
0.189346
0.18877
0.188204
0.18765
0.187107
0.186575
0.186053
0.185541
0.185039
0.184547
0.184064
0.18359
0.183126
0.18267
0.182223
0.181784
0.181353
0.18093
0.180515
0.180108
0.179708
0.179315
0.17893
0.178551
0.178179
0.177814
0.177456
0.177103
0.176757
0.176418
0.176084
0.175755
0.175433
0.175116
0.174805
0.1996
0.19881
0.198037
0.197281
0.19654
0.195815
0.195106
0.194411
0.193731
0.193065
0.192413
0.191774
0.191149
0.190536
0.189935
0.189347
0.188771
0.188205
0.187652
0.187109
0.186576
0.186055
0.185543
0.185041
0.184549
0.184066
0.183592
0.183128
0.182672
0.182225
0.181786
0.181355
0.180932
0.180516
0.180109
0.179709
0.179315
0.17893
0.17855
0.178178
0.177812
0.177453
0.1771
0.176753
0.176412
0.176078
0.175748
0.175425
0.175107
0.174795
0.1996
0.19881
0.198037
0.197281
0.19654
0.195816
0.195106
0.194412
0.193732
0.193066
0.192414
0.191776
0.191151
0.190538
0.189938
0.18935
0.188774
0.188209
0.187655
0.187113
0.186581
0.186059
0.185547
0.185046
0.184554
0.184071
0.183597
0.183132
0.182676
0.182228
0.181788
0.181356
0.180932
0.180516
0.180107
0.179706
0.179311
0.178924
0.178543
0.178169
0.177801
0.17744
0.177085
0.176736
0.176392
0.176055
0.175723
0.175397
0.175076
0.174761
0.1996
0.19881
0.198037
0.197281
0.196541
0.195816
0.195107
0.194413
0.193734
0.193069
0.192417
0.19178
0.191155
0.190544
0.189944
0.189357
0.188782
0.188218
0.187665
0.187122
0.18659
0.186069
0.185557
0.185054
0.184561
0.184077
0.183602
0.183135
0.182677
0.182227
0.181785
0.18135
0.180923
0.180504
0.180091
0.179686
0.179287
0.178895
0.17851
0.178131
0.177758
0.177391
0.177031
0.176676
0.176327
0.175983
0.175646
0.175313
0.174986
0.174664
0.1996
0.19881
0.198037
0.197282
0.196542
0.195819
0.195112
0.19442
0.193744
0.193081
0.192433
0.191798
0.191175
0.190566
0.189968
0.189381
0.188806
0.188242
0.187688
0.187145
0.186611
0.186086
0.185571
0.185065
0.184567
0.184078
0.183597
0.183124
0.182659
0.182201
0.181751
0.181308
0.180873
0.180444
0.180022
0.179606
0.179197
0.178795
0.178398
0.178008
0.177624
0.177245
0.176873
0.176506
0.176144
0.175788
0.175438
0.175093
0.174753
0.174417
0.1996
0.198811
0.19804
0.197288
0.196554
0.195838
0.195137
0.194452
0.193781
0.193124
0.192481
0.191849
0.191229
0.19062
0.190021
0.189433
0.188854
0.188284
0.187723
0.187171
0.186628
0.186092
0.185565
0.185045
0.184533
0.184029
0.183532
0.183042
0.182559
0.182083
0.181614
0.181151
0.180696
0.180246
0.179804
0.179367
0.178937
0.178512
0.178094
0.177682
0.177275
0.176874
0.176479
0.17609
0.175705
0.175327
0.174953
0.174585
0.174222
0.173865
0.1996
0.198814
0.198055
0.197324
0.196615
0.195925
0.195249
0.194583
0.193926
0.193277
0.192635
0.191999
0.191371
0.190749
0.190134
0.189526
0.188924
0.18833
0.187742
0.187161
0.186587
0.18602
0.18546
0.184907
0.184361
0.183821
0.183288
0.182762
0.182243
0.18173
0.181223
0.180723
0.18023
0.179743
0.179262
0.178787
0.178318
0.177856
0.177399
0.176949
0.176504
0.176065
0.175632
0.175205
0.174784
0.174367
0.173957
0.173552
0.173152
0.172758
0.199603
0.198887
0.198235
0.197593
0.196944
0.196286
0.195619
0.194946
0.194269
0.193591
0.192912
0.192235
0.191561
0.19089
0.190224
0.189563
0.188907
0.188257
0.187614
0.186977
0.186346
0.185721
0.185103
0.184492
0.183887
0.183289
0.182698
0.182112
0.181534
0.180962
0.180396
0.179836
0.179283
0.178737
0.178196
0.177662
0.177134
0.176613
0.176097
0.175588
0.175085
0.174588
0.174097
0.173612
0.173133
0.172661
0.172194
0.171733
0.171278
0.170829
0.199677
0.199153
0.198698
0.198233
0.197706
0.197105
0.196442
0.195734
0.194999
0.194248
0.193493
0.192738
0.191988
0.191245
0.19051
0.189784
0.189066
0.188357
0.187657
0.186965
0.18628
0.185603
0.184933
0.18427
0.183613
0.182964
0.182321
0.181685
0.181055
0.180431
0.179814
0.179204
0.178601
0.178004
0.177414
0.176832
0.176256
0.175687
0.175125
0.174571
0.174025
0.173485
0.172953
0.172429
0.171913
0.171404
0.170903
0.17041
0.169925
0.169447
0.200457
0.20095
0.20101
0.200826
0.200551
0.200263
0.199987
0.199731
0.1995
0.199298
0.199128
0.198991
0.198889
0.19882
0.198785
0.198783
0.198811
0.198867
0.19895
0.199058
0.199189
0.19934
0.19951
0.199696
0.199898
0.200113
0.20034
0.200578
0.200825
0.201081
0.201345
0.201615
0.201891
0.202172
0.202458
0.202749
0.203043
0.20334
0.203641
0.203945
0.204251
0.204559
0.20487
0.205183
0.205498
0.205815
0.206133
0.206453
0.206775
0.207098
0.205935
0.218576
0.231306
0.243979
0.256524
0.268912
0.281119
0.29312
0.304888
0.316401
0.327637
0.33858
0.349214
0.359525
0.369504
0.379142
0.388434
0.397375
0.405965
0.414204
0.422093
0.429635
0.436835
0.443698
0.450231
0.456442
0.462338
0.467928
0.473221
0.478226
0.482954
0.487414
0.491617
0.495571
0.499287
0.502776
0.506046
0.509107
0.51197
0.514642
0.517133
0.519451
0.521605
0.523604
0.525454
0.527164
0.52874
0.53019
0.531519
0.532738
0.365629
0.644378
0.918666
1.15725
1.34826
1.48986
1.58723
1.64954
1.68662
1.70704
1.71717
1.72127
1.72189
1.72049
1.71789
1.71455
1.71076
1.70672
1.70258
1.69841
1.6943
1.69028
1.68639
1.68264
1.67906
1.67566
1.67246
1.66947
1.66671
1.66417
1.66185
1.65975
1.65786
1.65618
1.65472
1.65349
1.65248
1.65165
1.6509
1.65008
1.64896
1.64727
1.64475
1.64112
1.63613
1.62962
1.62145
1.61151
1.59975
1.58609
1.57044
1.5527
1.53275
1.51045
1.48565
1.4582
1.428
1.39494
1.35896
1.32007
1.27831
1.23377
1.18663
1.1371
1.08551
1.03222
0.977698
0.922462
0.867099
0.812246
0.758565
0.706728
0.657383
0.611131
0.568492
0.529888
0.495627
0.465897
0.440781
0.420275
0.404327
0.392869
0.385865
0.383347
0.385452
0.39245
0.404764
0.422973
0.447797
0.480088
0.52083
0.571078
0.631898
0.705256
0.796621
0.915283
1.06572
1.23702
1.4066
1.55401
1.66886
1.74967
1.79982
1.82427
1.82799
1.81528
1.78969
1.75405
1.71062
1.6612
1.60724
1.54995
1.49029
1.42907
1.36698
1.3046
1.24243
1.18087
1.1203
1.06101
1.00326
0.947258
0.893191
0.841203
0.791413
0.743918
0.698798
0.656106
0.615873
0.578089
0.542703
0.509619
0.478717
0.449906
0.423207
0.398767
0.376605
0.356355
0.338428
0.327585
0.333015
0.356618
0.387243
0.414102
0.43418
0.448614
0.459112
0.466885
0.472731
0.47786
0.372086
0.40156
0.450791
0.517695
0.598851
0.689491
0.784176
0.877668
0.965614
1.04502
1.11437
1.17345
1.22295
1.26405
1.29811
1.32639
1.35002
1.36988
1.38665
1.40087
1.41292
1.42314
1.43177
1.43903
1.44511
1.45017
1.45435
1.45776
1.46051
1.46268
1.46433
1.46551
1.46626
1.46664
1.46669
1.46645
1.46594
1.46514
1.46399
1.46234
1.45999
1.45672
1.45227
1.4464
1.43893
1.42973
1.41871
1.40585
1.39113
1.37456
1.3561
1.3357
1.31328
1.28874
1.26196
1.23285
1.20131
1.1673
1.13079
1.09185
1.05056
1.00708
0.961662
0.914586
0.866224
0.817011
0.767444
0.718074
0.669487
0.622291
0.577083
0.534425
0.494816
0.45866
0.426251
0.39776
0.37324
0.352641
0.335837
0.32266
0.31294
0.306538
0.303387
0.303514
0.307078
0.314387
0.325922
0.342355
0.364541
0.393514
0.430468
0.47666
0.533258
0.60221
0.689124
0.803906
0.95166
1.12128
1.28948
1.43541
1.54873
1.62819
1.67736
1.7013
1.705
1.69272
1.66796
1.63352
1.5916
1.54399
1.4921
1.43709
1.37993
1.32141
1.26219
1.20284
1.14383
1.08556
1.02838
0.972578
0.918384
0.866
0.815587
0.767275
0.721169
0.677352
0.63589
0.59683
0.560193
0.525966
0.49409
0.46446
0.436927
0.41136
0.387735
0.366144
0.346502
0.32827
0.312039
0.304058
0.315314
0.345928
0.381319
0.410244
0.430941
0.445491
0.455997
0.463794
0.469709
0.474972
0.292342
0.296
0.302852
0.314057
0.330264
0.351879
0.379111
0.411921
0.449998
0.492735