/*--------------------------------*- C++ -*----------------------------------*\
| =========                 |                                                 |
| \\      /  F ield         | OpenFOAM: The Open Source CFD Toolbox           |
|  \\    /   O peration     | Version:  5.x                                   |
|   \\  /    A nd           | Web:      www.OpenFOAM.org                      |
|    \\/     M anipulation  |                                                 |
\*---------------------------------------------------------------------------*/
FoamFile
{
    version     2.0;
    format      ascii;
    class       volScalarField;
    location    "600";
    object      nut;
}
// * * * * * * * * * * * * * * * * * * * * * * * * * * * * * * * * * * * * * //

dimensions      [0 2 -1 0 0 0 0];

internalField   nonuniform List<scalar> 
15000
(
6.64937e-05
6.45208e-05
6.25824e-05
6.0539e-05
5.84429e-05
5.63952e-05
5.44825e-05
5.27632e-05
5.1271e-05
5.00211e-05
4.90154e-05
4.82474e-05
4.77043e-05
4.73697e-05
4.72251e-05
4.72508e-05
4.74269e-05
4.7734e-05
4.81535e-05
4.86679e-05
4.9261e-05
4.99182e-05
5.06262e-05
5.13734e-05
5.21492e-05
5.29448e-05
5.37523e-05
5.45651e-05
5.53775e-05
5.61848e-05
5.69831e-05
5.77692e-05
5.85405e-05
5.92951e-05
6.00314e-05
6.07481e-05
6.14446e-05
6.21202e-05
6.27748e-05
6.34081e-05
6.40203e-05
6.46116e-05
6.51825e-05
6.5732e-05
6.62675e-05
6.67562e-05
6.73546e-05
6.73253e-05
7.01608e-05
5.92019e-05
0.00053239
0.000354249
0.000287627
0.000248496
0.000222866
0.000205602
0.000193809
0.000185649
0.00017993
0.000175867
0.000172932
0.000170765
0.000169118
0.000167819
0.00016675
0.00016583
0.000165006
0.00016424
0.000163512
0.000162807
0.00016212
0.000161447
0.000160788
0.000160145
0.000159519
0.000158913
0.000158329
0.000157769
0.000157235
0.000156729
0.00015625
0.000155801
0.000155381
0.00015499
0.000154628
0.000154295
0.000153989
0.000153711
0.000153459
0.000153231
0.000153028
0.000152848
0.00015269
0.000152554
0.000152438
0.000152337
0.000152283
0.000152157
0.000152366
0.000151907
0.000901767
0.000706449
0.000587646
0.000510292
0.000456301
0.000416484
0.000385755
0.00036113
0.000340793
0.0003236
0.000308805
0.000295898
0.000284521
0.000274412
0.000265374
0.000257255
0.000249934
0.000243314
0.000237312
0.000231859
0.000226899
0.000222378
0.000218254
0.000214488
0.000211044
0.000207894
0.00020501
0.000202368
0.000199946
0.000197726
0.00019569
0.000193822
0.000192109
0.000190537
0.000189096
0.000187775
0.000186564
0.000185454
0.000184439
0.00018351
0.000182662
0.000181888
0.000181182
0.00018054
0.000179957
0.000179425
0.000178951
0.000178498
0.000178117
0.000177639
0.000999819
0.000919112
0.000829376
0.000751341
0.000688024
0.000637044
0.000595438
0.000560796
0.000531352
0.00050585
0.000483395
0.000463344
0.00044523
0.000428711
0.000413531
0.0003995
0.000386472
0.000374338
0.000363009
0.000352415
0.000342501
0.000333216
0.000324519
0.000316373
0.000308744
0.000301598
0.000294908
0.000288645
0.000282783
0.000277296
0.000272162
0.000267357
0.000262861
0.000258654
0.000254717
0.000251032
0.000247584
0.000244355
0.000241333
0.000238503
0.000235853
0.000233371
0.000231046
0.000228868
0.000226827
0.000224913
0.000223121
0.000221431
0.000219852
0.000218334
0.00101539
0.000994251
0.000955213
0.00090762
0.000859386
0.000814465
0.000774107
0.000738278
0.000706476
0.000678099
0.000652587
0.000629459
0.000608322
0.000588854
0.000570802
0.000553959
0.000538165
0.000523289
0.00050923
0.000495905
0.000483251
0.000471214
0.000459751
0.000448828
0.000438415
0.000428485
0.000419015
0.000409986
0.000401377
0.000393171
0.00038535
0.000377899
0.0003708
0.00036404
0.000357602
0.000351472
0.000345637
0.000340081
0.000334793
0.00032976
0.000324968
0.000320407
0.000316065
0.00031193
0.000307993
0.000304242
0.000300669
0.000297258
0.000294007
0.000290893
0.00101691
0.00101262
0.00100044
0.000980202
0.000954302
0.000925612
0.000896336
0.000867806
0.000840685
0.000815227
0.000791459
0.000769295
0.000748603
0.000729236
0.00071105
0.000693915
0.000677713
0.000662344
0.000647719
0.000633765
0.00062042
0.000607633
0.00059536
0.000583566
0.000572219
0.000561295
0.000550773
0.000540633
0.000530859
0.000521438
0.000512357
0.000503603
0.000495165
0.000487033
0.000479197
0.000471647
0.000464374
0.000457369
0.000450623
0.000444126
0.00043787
0.000431848
0.000426049
0.000420467
0.000415092
0.000409917
0.000404934
0.000400132
0.000395508
0.00039105
0.00101687
0.00101603
0.00101292
0.00100619
0.000995479
0.000981322
0.000964702
0.000946617
0.000927874
0.000909046
0.000890505
0.000872471
0.000855061
0.000838324
0.000822269
0.000806879
0.000792123
0.000777963
0.000764361
0.000751276
0.000738673
0.000726518
0.000714779
0.000703431
0.000692449
0.000681813
0.000671504
0.000661508
0.00065181
0.000642399
0.000633264
0.000624396
0.000615786
0.000607427
0.000599311
0.000591431
0.000583782
0.000576358
0.000569153
0.00056216
0.000555375
0.000548792
0.000542406
0.000536211
0.000530203
0.000524374
0.000518722
0.000513239
0.000507923
0.000502769
0.00101681
0.00101648
0.00101567
0.00101373
0.00101004
0.00100431
0.000996582
0.000987143
0.000976376
0.000964676
0.000952384
0.000939777
0.00092706
0.000914384
0.000901853
0.000889536
0.000877477
0.000865699
0.000854216
0.000843031
0.00083214
0.000821538
0.000811215
0.000801163
0.00079137
0.000781828
0.000772526
0.000763456
0.00075461
0.00074598
0.000737559
0.000729341
0.000721321
0.000713494
0.000705854
0.000698397
0.00069112
0.000684018
0.000677089
0.000670328
0.000663732
0.000657299
0.000651024
0.000644905
0.000638938
0.000633121
0.000627451
0.000621925
0.000616541
0.000611298
0.00101679
0.00101649
0.00101613
0.00101551
0.00101431
0.00101227
0.00100918
0.00100497
0.000999682
0.000993441
0.000986404
0.000978738
0.000970599
0.000962125
0.00095343
0.000944608
0.000935731
0.000926856
0.000918027
0.000909274
0.000900623
0.000892088
0.000883682
0.000875412
0.000867283
0.000859297
0.000851455
0.000843757
0.000836202
0.000828789
0.000821517
0.000814383
0.000807386
0.000800524
0.000793795
0.000787197
0.00078073
0.00077439
0.000768177
0.000762089
0.000756124
0.000750281
0.000744559
0.000738955
0.000733469
0.0007281
0.000722846
0.000717705
0.000712679
0.000707767
0.00101679
0.00101648
0.00101617
0.00101583
0.00101535
0.0010146
0.00101343
0.00101173
0.00100941
0.00100647
0.00100292
0.000998793
0.000994171
0.000989122
0.000983719
0.000978032
0.000972124
0.000966047
0.00095985
0.000953571
0.000947245
0.000940896
0.000934548
0.000928219
0.000921922
0.00091567
0.00090947
0.000903332
0.000897259
0.000891257
0.000885329
0.000879478
0.000873705
0.000868014
0.000862404
0.000856877
0.000851433
0.000846073
0.000840798
0.000835607
0.000830501
0.000825479
0.000820542
0.000815691
0.000810923
0.000806241
0.000801643
0.000797131
0.000792704
0.000788363
0.00101679
0.00101647
0.00101616
0.00101586
0.00101554
0.00101516
0.00101464
0.00101393
0.00101295
0.00101165
0.00101
0.00100798
0.0010056
0.00100287
0.000999827
0.000996496
0.000992912
0.000989109
0.000985122
0.000980979
0.00097671
0.000972339
0.000967889
0.000963378
0.000958824
0.000954242
0.000949644
0.00094504
0.000940441
0.000935853
0.000931284
0.000926739
0.000922224
0.000917742
0.000913297
0.000908893
0.000904531
0.000900215
0.000895946
0.000891727
0.000887558
0.000883441
0.000879378
0.000875369
0.000871415
0.000867518
0.000863679
0.000859898
0.000856177
0.000852517
0.00101679
0.00101647
0.00101616
0.00101586
0.00101556
0.00101526
0.00101493
0.00101454
0.00101406
0.00101345
0.00101268
0.00101172
0.00101055
0.00100917
0.00100757
0.00100576
0.00100375
0.00100155
0.00099917
0.000996637
0.000993962
0.000991163
0.000988255
0.000985253
0.000982172
0.000979023
0.000975819
0.000972569
0.000969284
0.000965971
0.000962639
0.000959293
0.000955941
0.000952587
0.000949237
0.000945893
0.000942562
0.000939245
0.000935945
0.000932667
0.000929411
0.000926181
0.000922979
0.000919805
0.000916663
0.000913554
0.000910479
0.000907441
0.00090444
0.000901478
0.00101679
0.00101647
0.00101615
0.00101585
0.00101555
0.00101526
0.00101497
0.00101467
0.00101435
0.00101398
0.00101356
0.00101306
0.00101246
0.00101175
0.00101093
0.00100997
0.00100889
0.00100768
0.00100634
0.00100487
0.00100329
0.00100161
0.000999819
0.000997938
0.000995974
0.000993934
0.000991827
0.000989659
0.00098744
0.000985174
0.00098287
0.000980532
0.000978167
0.000975778
0.000973372
0.000970952
0.000968523
0.000966087
0.000963649
0.000961211
0.000958776
0.000956347
0.000953926
0.000951516
0.000949118
0.000946735
0.000944368
0.00094202
0.000939691
0.000937385
0.00101679
0.00101647
0.00101615
0.00101585
0.00101555
0.00101525
0.00101497
0.00101468
0.0010144
0.00101411
0.0010138
0.00101347
0.0010131
0.00101269
0.00101222
0.0010117
0.0010111
0.00101042
0.00100967
0.00100885
0.00100794
0.00100696
0.0010059
0.00100477
0.00100357
0.00100231
0.00100099
0.00099961
0.00099818
0.000996703
0.000995182
0.000993623
0.000992029
0.000990405
0.000988753
0.000987077
0.000985382
0.000983669
0.000981942
0.000980203
0.000978455
0.000976701
0.000974943
0.000973183
0.000971423
0.000969666
0.000967912
0.000966164
0.000964424
0.000962693
0.00101679
0.00101646
0.00101615
0.00101584
0.00101554
0.00101525
0.00101496
0.00101468
0.0010144
0.00101413
0.00101385
0.00101357
0.00101329
0.00101299
0.00101267
0.00101232
0.00101195
0.00101154
0.00101109
0.0010106
0.00101006
0.00100948
0.00100885
0.00100818
0.00100746
0.00100669
0.00100588
0.00100503
0.00100413
0.0010032
0.00100223
0.00100122
0.00100019
0.000999121
0.000998027
0.000996909
0.000995769
0.000994608
0.000993429
0.000992234
0.000991025
0.000989804
0.000988573
0.000987333
0.000986087
0.000984836
0.000983581
0.000982325
0.000981068
0.000979812
0.00101679
0.00101646
0.00101615
0.00101584
0.00101554
0.00101524
0.00101495
0.00101467
0.00101439
0.00101412
0.00101385
0.00101359
0.00101332
0.00101306
0.00101279
0.00101252
0.00101223
0.00101193
0.00101162
0.00101129
0.00101094
0.00101057
0.00101017
0.00100974
0.00100929
0.00100881
0.0010083
0.00100777
0.00100721
0.00100662
0.001006
0.00100536
0.0010047
0.00100401
0.0010033
0.00100257
0.00100182
0.00100105
0.00100027
0.00099947
0.000998656
0.000997829
0.00099699
0.000996142
0.000995284
0.000994419
0.000993547
0.00099267
0.000991789
0.000990905
0.00101679
0.00101646
0.00101615
0.00101584
0.00101554
0.00101524
0.00101495
0.00101467
0.00101439
0.00101411
0.00101385
0.00101358
0.00101332
0.00101307
0.00101281
0.00101256
0.00101231
0.00101206
0.0010118
0.00101153
0.00101126
0.00101098
0.00101069
0.00101039
0.00101008
0.00100975
0.00100941
0.00100906
0.00100868
0.0010083
0.00100789
0.00100747
0.00100704
0.00100659
0.00100612
0.00100564
0.00100515
0.00100464
0.00100412
0.00100359
0.00100304
0.00100249
0.00100193
0.00100135
0.00100077
0.00100018
0.000999589
0.000998988
0.000998381
0.000997771
0.00101679
0.00101646
0.00101615
0.00101584
0.00101554
0.00101524
0.00101495
0.00101466
0.00101438
0.00101411
0.00101384
0.00101357
0.00101332
0.00101306
0.00101281
0.00101257
0.00101232
0.00101208
0.00101184
0.0010116
0.00101137
0.00101113
0.00101088
0.00101064
0.00101039
0.00101013
0.00100987
0.00100961
0.00100933
0.00100905
0.00100877
0.00100847
0.00100816
0.00100785
0.00100753
0.0010072
0.00100686
0.00100651
0.00100616
0.0010058
0.00100543
0.00100505
0.00100467
0.00100427
0.00100388
0.00100348
0.00100307
0.00100266
0.00100224
0.00100182
0.00101679
0.00101646
0.00101615
0.00101584
0.00101553
0.00101524
0.00101494
0.00101466
0.00101438
0.0010141
0.00101383
0.00101357
0.00101331
0.00101305
0.0010128
0.00101256
0.00101232
0.00101208
0.00101185
0.00101162
0.00101139
0.00101116
0.00101094
0.00101071
0.00101049
0.00101027
0.00101004
0.00100982
0.00100959
0.00100937
0.00100914
0.0010089
0.00100867
0.00100843
0.00100818
0.00100794
0.00100768
0.00100743
0.00100717
0.00100691
0.00100664
0.00100637
0.0010061
0.00100582
0.00100554
0.00100525
0.00100496
0.00100467
0.00100438
0.00100408
0.00101679
0.00101646
0.00101615
0.00101584
0.00101553
0.00101523
0.00101494
0.00101466
0.00101438
0.0010141
0.00101383
0.00101356
0.0010133
0.00101305
0.0010128
0.00101255
0.00101231
0.00101207
0.00101184
0.00101161
0.00101139
0.00101116
0.00101095
0.00101073
0.00101052
0.00101031
0.0010101
0.00100989
0.00100968
0.00100948
0.00100927
0.00100907
0.00100887
0.00100866
0.00100846
0.00100825
0.00100805
0.00100784
0.00100763
0.00100743
0.00100722
0.00100701
0.00100679
0.00100658
0.00100637
0.00100615
0.00100594
0.00100572
0.0010055
0.00100528
0.00101679
0.00101646
0.00101615
0.00101584
0.00101553
0.00101523
0.00101494
0.00101465
0.00101437
0.0010141
0.00101383
0.00101356
0.0010133
0.00101304
0.00101279
0.00101255
0.0010123
0.00101207
0.00101183
0.0010116
0.00101138
0.00101116
0.00101094
0.00101073
0.00101052
0.00101031
0.00101011
0.0010099
0.00100971
0.00100951
0.00100932
0.00100912
0.00100894
0.00100875
0.00100856
0.00100838
0.00100819
0.00100801
0.00100783
0.00100765
0.00100747
0.00100729
0.00100711
0.00100693
0.00100675
0.00100658
0.0010064
0.00100622
0.00100605
0.00100587
0.00101679
0.00101646
0.00101615
0.00101583
0.00101553
0.00101523
0.00101494
0.00101465
0.00101437
0.00101409
0.00101382
0.00101356
0.0010133
0.00101304
0.00101279
0.00101254
0.0010123
0.00101206
0.00101183
0.0010116
0.00101137
0.00101115
0.00101093
0.00101072
0.00101051
0.0010103
0.0010101
0.0010099
0.0010097
0.00100951
0.00100932
0.00100914
0.00100895
0.00100877
0.00100859
0.00100841
0.00100824
0.00100807
0.0010079
0.00100773
0.00100756
0.0010074
0.00100724
0.00100708
0.00100692
0.00100676
0.0010066
0.00100645
0.00100629
0.00100614
0.00101679
0.00101646
0.00101614
0.00101583
0.00101553
0.00101523
0.00101494
0.00101465
0.00101437
0.00101409
0.00101382
0.00101355
0.00101329
0.00101304
0.00101278
0.00101254
0.00101229
0.00101205
0.00101182
0.00101159
0.00101136
0.00101114
0.00101093
0.00101071
0.0010105
0.0010103
0.00101009
0.00100989
0.0010097
0.00100951
0.00100932
0.00100913
0.00100895
0.00100877
0.00100859
0.00100842
0.00100825
0.00100808
0.00100792
0.00100775
0.00100759
0.00100743
0.00100728
0.00100713
0.00100697
0.00100683
0.00100668
0.00100653
0.00100639
0.00100625
0.00101679
0.00101646
0.00101614
0.00101583
0.00101553
0.00101523
0.00101494
0.00101465
0.00101437
0.00101409
0.00101382
0.00101355
0.00101329
0.00101303
0.00101278
0.00101253
0.00101229
0.00101205
0.00101182
0.00101159
0.00101136
0.00101114
0.00101092
0.0010107
0.00101049
0.00101029
0.00101008
0.00100989
0.00100969
0.0010095
0.00100931
0.00100912
0.00100894
0.00100876
0.00100859
0.00100841
0.00100824
0.00100808
0.00100791
0.00100775
0.00100759
0.00100744
0.00100729
0.00100713
0.00100699
0.00100684
0.0010067
0.00100656
0.00100642
0.00100629
0.00101679
0.00101646
0.00101614
0.00101583
0.00101553
0.00101523
0.00101494
0.00101465
0.00101437
0.00101409
0.00101382
0.00101355
0.00101329
0.00101303
0.00101278
0.00101253
0.00101229
0.00101205
0.00101181
0.00101158
0.00101135
0.00101113
0.00101091
0.0010107
0.00101049
0.00101028
0.00101008
0.00100988
0.00100968
0.00100949
0.0010093
0.00100911
0.00100893
0.00100875
0.00100858
0.0010084
0.00100823
0.00100807
0.0010079
0.00100774
0.00100759
0.00100743
0.00100728
0.00100713
0.00100698
0.00100684
0.0010067
0.00100656
0.00100642
0.00100629
0.00101679
0.00101646
0.00101614
0.00101583
0.00101553
0.00101523
0.00101493
0.00101465
0.00101436
0.00101409
0.00101381
0.00101355
0.00101328
0.00101303
0.00101277
0.00101253
0.00101228
0.00101204
0.00101181
0.00101158
0.00101135
0.00101113
0.00101091
0.00101069
0.00101048
0.00101028
0.00101007
0.00100987
0.00100968
0.00100948
0.00100929
0.00100911
0.00100892
0.00100874
0.00100857
0.0010084
0.00100823
0.00100806
0.00100789
0.00100773
0.00100758
0.00100742
0.00100727
0.00100712
0.00100697
0.00100683
0.00100669
0.00100655
0.00100641
0.00100628
0.00101679
0.00101646
0.00101614
0.00101583
0.00101553
0.00101523
0.00101493
0.00101465
0.00101436
0.00101409
0.00101381
0.00101354
0.00101328
0.00101302
0.00101277
0.00101252
0.00101228
0.00101204
0.0010118
0.00101157
0.00101135
0.00101112
0.0010109
0.00101069
0.00101048
0.00101027
0.00101007
0.00100987
0.00100967
0.00100948
0.00100929
0.0010091
0.00100892
0.00100874
0.00100856
0.00100839
0.00100822
0.00100805
0.00100788
0.00100772
0.00100756
0.00100741
0.00100726
0.00100711
0.00100696
0.00100681
0.00100667
0.00100653
0.0010064
0.00100626
0.00101679
0.00101646
0.00101614
0.00101583
0.00101553
0.00101523
0.00101493
0.00101464
0.00101436
0.00101408
0.00101381
0.00101354
0.00101328
0.00101302
0.00101277
0.00101252
0.00101228
0.00101204
0.0010118
0.00101157
0.00101134
0.00101112
0.0010109
0.00101068
0.00101047
0.00101026
0.00101006
0.00100986
0.00100966
0.00100947
0.00100928
0.00100909
0.00100891
0.00100873
0.00100855
0.00100838
0.00100821
0.00100804
0.00100788
0.00100771
0.00100755
0.0010074
0.00100725
0.00100709
0.00100695
0.0010068
0.00100666
0.00100652
0.00100638
0.00100625
0.00101679
0.00101646
0.00101614
0.00101583
0.00101553
0.00101523
0.00101493
0.00101464
0.00101436
0.00101408
0.00101381
0.00101354
0.00101328
0.00101302
0.00101277
0.00101252
0.00101227
0.00101203
0.0010118
0.00101157
0.00101134
0.00101112
0.0010109
0.00101068
0.00101047
0.00101026
0.00101006
0.00100986
0.00100966
0.00100946
0.00100927
0.00100909
0.0010089
0.00100872
0.00100854
0.00100837
0.0010082
0.00100803
0.00100787
0.0010077
0.00100754
0.00100739
0.00100723
0.00100708
0.00100694
0.00100679
0.00100665
0.00100651
0.00100637
0.00100623
0.00101679
0.00101646
0.00101614
0.00101583
0.00101553
0.00101523
0.00101493
0.00101464
0.00101436
0.00101408
0.00101381
0.00101354
0.00101328
0.00101302
0.00101277
0.00101252
0.00101227
0.00101203
0.0010118
0.00101156
0.00101134
0.00101111
0.00101089
0.00101068
0.00101046
0.00101026
0.00101005
0.00100985
0.00100965
0.00100946
0.00100927
0.00100908
0.0010089
0.00100872
0.00100854
0.00100836
0.00100819
0.00100802
0.00100786
0.0010077
0.00100754
0.00100738
0.00100723
0.00100707
0.00100693
0.00100678
0.00100664
0.0010065
0.00100636
0.00100622
0.00101679
0.00101646
0.00101614
0.00101583
0.00101553
0.00101523
0.00101493
0.00101464
0.00101436
0.00101408
0.00101381
0.00101354
0.00101328
0.00101302
0.00101276
0.00101251
0.00101227
0.00101203
0.00101179
0.00101156
0.00101133
0.00101111
0.00101089
0.00101067
0.00101046
0.00101025
0.00101005
0.00100985
0.00100965
0.00100945
0.00100926
0.00100908
0.00100889
0.00100871
0.00100853
0.00100836
0.00100819
0.00100802
0.00100785
0.00100769
0.00100753
0.00100737
0.00100722
0.00100706
0.00100692
0.00100677
0.00100662
0.00100648
0.00100634
0.00100621
0.00101679
0.00101646
0.00101614
0.00101583
0.00101553
0.00101523
0.00101493
0.00101464
0.00101436
0.00101408
0.00101381
0.00101354
0.00101328
0.00101302
0.00101276
0.00101251
0.00101227
0.00101203
0.00101179
0.00101156
0.00101133
0.00101111
0.00101089
0.00101067
0.00101046
0.00101025
0.00101004
0.00100984
0.00100964
0.00100945
0.00100926
0.00100907
0.00100889
0.0010087
0.00100853
0.00100835
0.00100818
0.00100801
0.00100784
0.00100768
0.00100752
0.00100736
0.00100721
0.00100706
0.00100691
0.00100676
0.00100661
0.00100647
0.00100633
0.0010062
0.00101679
0.00101646
0.00101614
0.00101583
0.00101553
0.00101523
0.00101493
0.00101464
0.00101436
0.00101408
0.00101381
0.00101354
0.00101327
0.00101302
0.00101276
0.00101251
0.00101227
0.00101203
0.00101179
0.00101156
0.00101133
0.0010111
0.00101088
0.00101067
0.00101045
0.00101025
0.00101004
0.00100984
0.00100964
0.00100945
0.00100925
0.00100907
0.00100888
0.0010087
0.00100852
0.00100835
0.00100817
0.001008
0.00100784
0.00100767
0.00100751
0.00100735
0.0010072
0.00100705
0.0010069
0.00100675
0.0010066
0.00100646
0.00100632
0.00100618
0.00101679
0.00101646
0.00101614
0.00101583
0.00101553
0.00101523
0.00101493
0.00101464
0.00101436
0.00101408
0.00101381
0.00101354
0.00101327
0.00101301
0.00101276
0.00101251
0.00101226
0.00101202
0.00101179
0.00101155
0.00101133
0.0010111
0.00101088
0.00101066
0.00101045
0.00101024
0.00101004
0.00100984
0.00100964
0.00100944
0.00100925
0.00100906
0.00100888
0.00100869
0.00100852
0.00100834
0.00100817
0.001008
0.00100783
0.00100767
0.00100751
0.00100735
0.00100719
0.00100704
0.00100689
0.00100674
0.00100659
0.00100645
0.00100631
0.00100617
0.00101679
0.00101646
0.00101614
0.00101583
0.00101553
0.00101523
0.00101493
0.00101464
0.00101436
0.00101408
0.0010138
0.00101354
0.00101327
0.00101301
0.00101276
0.00101251
0.00101226
0.00101202
0.00101179
0.00101155
0.00101132
0.0010111
0.00101088
0.00101066
0.00101045
0.00101024
0.00101003
0.00100983
0.00100963
0.00100944
0.00100925
0.00100906
0.00100887
0.00100869
0.00100851
0.00100834
0.00100816
0.00100799
0.00100782
0.00100766
0.0010075
0.00100734
0.00100718
0.00100703
0.00100688
0.00100673
0.00100659
0.00100644
0.0010063
0.00100616
0.00101679
0.00101646
0.00101614
0.00101583
0.00101553
0.00101523
0.00101493
0.00101464
0.00101436
0.00101408
0.0010138
0.00101354
0.00101327
0.00101301
0.00101276
0.00101251
0.00101226
0.00101202
0.00101178
0.00101155
0.00101132
0.0010111
0.00101088
0.00101066
0.00101045
0.00101024
0.00101003
0.00100983
0.00100963
0.00100944
0.00100924
0.00100905
0.00100887
0.00100869
0.00100851
0.00100833
0.00100816
0.00100799
0.00100782
0.00100765
0.00100749
0.00100733
0.00100718
0.00100702
0.00100687
0.00100672
0.00100658
0.00100643
0.00100629
0.00100615
0.00101679
0.00101646
0.00101614
0.00101583
0.00101553
0.00101522
0.00101493
0.00101464
0.00101436
0.00101408
0.0010138
0.00101354
0.00101327
0.00101301
0.00101276
0.00101251
0.00101226
0.00101202
0.00101178
0.00101155
0.00101132
0.0010111
0.00101088
0.00101066
0.00101045
0.00101024
0.00101003
0.00100983
0.00100963
0.00100943
0.00100924
0.00100905
0.00100887
0.00100868
0.0010085
0.00100833
0.00100815
0.00100798
0.00100781
0.00100765
0.00100749
0.00100733
0.00100717
0.00100702
0.00100687
0.00100672
0.00100657
0.00100643
0.00100628
0.00100615
0.00101679
0.00101646
0.00101614
0.00101583
0.00101553
0.00101522
0.00101493
0.00101464
0.00101436
0.00101408
0.0010138
0.00101353
0.00101327
0.00101301
0.00101276
0.00101251
0.00101226
0.00101202
0.00101178
0.00101155
0.00101132
0.0010111
0.00101087
0.00101066
0.00101044
0.00101023
0.00101003
0.00100982
0.00100963
0.00100943
0.00100924
0.00100905
0.00100886
0.00100868
0.0010085
0.00100832
0.00100815
0.00100798
0.00100781
0.00100764
0.00100748
0.00100732
0.00100716
0.00100701
0.00100686
0.00100671
0.00100656
0.00100642
0.00100628
0.00100614
0.00101679
0.00101646
0.00101614
0.00101583
0.00101552
0.00101522
0.00101493
0.00101464
0.00101436
0.00101408
0.0010138
0.00101353
0.00101327
0.00101301
0.00101276
0.00101251
0.00101226
0.00101202
0.00101178
0.00101155
0.00101132
0.00101109
0.00101087
0.00101066
0.00101044
0.00101023
0.00101003
0.00100982
0.00100962
0.00100943
0.00100923
0.00100905
0.00100886
0.00100868
0.0010085
0.00100832
0.00100814
0.00100797
0.0010078
0.00100764
0.00100748
0.00100732
0.00100716
0.001007
0.00100685
0.0010067
0.00100656
0.00100641
0.00100627
0.00100613
0.00101679
0.00101646
0.00101614
0.00101583
0.00101552
0.00101522
0.00101493
0.00101464
0.00101436
0.00101408
0.0010138
0.00101353
0.00101327
0.00101301
0.00101276
0.00101251
0.00101226
0.00101202
0.00101178
0.00101155
0.00101132
0.00101109
0.00101087
0.00101065
0.00101044
0.00101023
0.00101002
0.00100982
0.00100962
0.00100942
0.00100923
0.00100904
0.00100886
0.00100867
0.00100849
0.00100832
0.00100814
0.00100797
0.0010078
0.00100763
0.00100747
0.00100731
0.00100715
0.001007
0.00100685
0.0010067
0.00100655
0.0010064
0.00100626
0.00100612
0.00101679
0.00101646
0.00101614
0.00101583
0.00101552
0.00101522
0.00101493
0.00101464
0.00101436
0.00101408
0.0010138
0.00101353
0.00101327
0.00101301
0.00101276
0.0010125
0.00101226
0.00101202
0.00101178
0.00101155
0.00101132
0.00101109
0.00101087
0.00101065
0.00101044
0.00101023
0.00101002
0.00100982
0.00100962
0.00100942
0.00100923
0.00100904
0.00100885
0.00100867
0.00100849
0.00100831
0.00100814
0.00100797
0.0010078
0.00100763
0.00100747
0.00100731
0.00100715
0.00100699
0.00100684
0.00100669
0.00100654
0.0010064
0.00100625
0.00100611
0.00101679
0.00101646
0.00101614
0.00101583
0.00101552
0.00101522
0.00101493
0.00101464
0.00101436
0.00101408
0.0010138
0.00101353
0.00101327
0.00101301
0.00101275
0.0010125
0.00101226
0.00101202
0.00101178
0.00101155
0.00101132
0.00101109
0.00101087
0.00101065
0.00101044
0.00101023
0.00101002
0.00100982
0.00100962
0.00100942
0.00100923
0.00100904
0.00100885
0.00100867
0.00100849
0.00100831
0.00100813
0.00100796
0.00100779
0.00100763
0.00100746
0.0010073
0.00100714
0.00100699
0.00100684
0.00100669
0.00100654
0.00100639
0.00100625
0.00100611
0.00101679
0.00101646
0.00101614
0.00101583
0.00101552
0.00101522
0.00101493
0.00101464
0.00101436
0.00101408
0.0010138
0.00101353
0.00101327
0.00101301
0.00101275
0.0010125
0.00101226
0.00101202
0.00101178
0.00101155
0.00101132
0.00101109
0.00101087
0.00101065
0.00101044
0.00101023
0.00101002
0.00100982
0.00100962
0.00100942
0.00100923
0.00100904
0.00100885
0.00100867
0.00100848
0.00100831
0.00100813
0.00100796
0.00100779
0.00100762
0.00100746
0.0010073
0.00100714
0.00100698
0.00100683
0.00100668
0.00100653
0.00100639
0.00100624
0.0010061
0.00101679
0.00101646
0.00101614
0.00101583
0.00101553
0.00101522
0.00101493
0.00101464
0.00101436
0.00101408
0.0010138
0.00101353
0.00101327
0.00101301
0.00101275
0.0010125
0.00101226
0.00101202
0.00101178
0.00101155
0.00101132
0.00101109
0.00101087
0.00101065
0.00101044
0.00101023
0.00101002
0.00100982
0.00100962
0.00100942
0.00100922
0.00100903
0.00100885
0.00100866
0.00100848
0.0010083
0.00100813
0.00100796
0.00100779
0.00100762
0.00100746
0.0010073
0.00100714
0.00100698
0.00100683
0.00100668
0.00100653
0.00100638
0.00100624
0.0010061
0.00101679
0.00101646
0.00101614
0.00101583
0.00101553
0.00101522
0.00101493
0.00101464
0.00101436
0.00101408
0.0010138
0.00101353
0.00101327
0.00101301
0.00101275
0.0010125
0.00101226
0.00101202
0.00101178
0.00101154
0.00101132
0.00101109
0.00101087
0.00101065
0.00101044
0.00101023
0.00101002
0.00100981
0.00100961
0.00100942
0.00100922
0.00100903
0.00100885
0.00100866
0.00100848
0.0010083
0.00100813
0.00100795
0.00100779
0.00100762
0.00100745
0.00100729
0.00100713
0.00100698
0.00100682
0.00100667
0.00100652
0.00100638
0.00100623
0.00100609
0.00101679
0.00101646
0.00101614
0.00101583
0.00101553
0.00101522
0.00101493
0.00101464
0.00101436
0.00101408
0.0010138
0.00101353
0.00101327
0.00101301
0.00101275
0.0010125
0.00101226
0.00101202
0.00101178
0.00101154
0.00101132
0.00101109
0.00101087
0.00101065
0.00101044
0.00101022
0.00101002
0.00100981
0.00100961
0.00100942
0.00100922
0.00100903
0.00100885
0.00100866
0.00100848
0.0010083
0.00100813
0.00100795
0.00100778
0.00100762
0.00100745
0.00100729
0.00100713
0.00100697
0.00100682
0.00100667
0.00100652
0.00100637
0.00100623
0.00100609
0.00101679
0.00101646
0.00101614
0.00101583
0.00101553
0.00101522
0.00101493
0.00101464
0.00101436
0.00101408
0.0010138
0.00101353
0.00101327
0.00101301
0.00101276
0.0010125
0.00101226
0.00101202
0.00101178
0.00101155
0.00101132
0.00101109
0.00101087
0.00101065
0.00101044
0.00101022
0.00101002
0.00100981
0.00100961
0.00100942
0.00100922
0.00100903
0.00100884
0.00100866
0.00100848
0.0010083
0.00100812
0.00100795
0.00100778
0.00100761
0.00100745
0.00100729
0.00100713
0.00100697
0.00100682
0.00100666
0.00100651
0.00100637
0.00100622
0.00100608
0.00101679
0.00101646
0.00101614
0.00101583
0.00101553
0.00101523
0.00101493
0.00101464
0.00101436
0.00101408
0.0010138
0.00101353
0.00101327
0.00101301
0.00101276
0.00101251
0.00101226
0.00101202
0.00101178
0.00101155
0.00101132
0.00101109
0.00101087
0.00101065
0.00101044
0.00101023
0.00101002
0.00100981
0.00100961
0.00100942
0.00100922
0.00100903
0.00100884
0.00100866
0.00100848
0.0010083
0.00100812
0.00100795
0.00100778
0.00100761
0.00100744
0.00100728
0.00100712
0.00100696
0.0010068
0.00100665
0.0010065
0.00100635
0.0010062
0.00100606
0.00101679
0.00101646
0.00101614
0.00101583
0.00101553
0.00101523
0.00101493
0.00101464
0.00101436
0.00101408
0.0010138
0.00101354
0.00101327
0.00101301
0.00101276
0.00101251
0.00101226
0.00101202
0.00101178
0.00101155
0.00101132
0.00101109
0.00101087
0.00101065
0.00101044
0.00101023
0.00101002
0.00100981
0.00100961
0.00100941
0.00100922
0.00100903
0.00100884
0.00100865
0.00100847
0.00100829
0.00100811
0.00100793
0.00100776
0.00100759
0.00100742
0.00100725
0.00100709
0.00100692
0.00100676
0.0010066
0.00100645
0.00100629
0.00100614
0.00100599
0.00101679
0.00101646
0.00101614
0.00101583
0.00101553
0.00101523
0.00101493
0.00101464
0.00101436
0.00101408
0.00101381
0.00101354
0.00101327
0.00101301
0.00101276
0.00101251
0.00101226
0.00101202
0.00101178
0.00101155
0.00101132
0.00101109
0.00101087
0.00101065
0.00101043
0.00101022
0.00101001
0.0010098
0.0010096
0.0010094
0.0010092
0.001009
0.00100881
0.00100861
0.00100842
0.00100823
0.00100805
0.00100786
0.00100768
0.00100749
0.00100731
0.00100713
0.00100695
0.00100678
0.0010066
0.00100642
0.00100625
0.00100608
0.0010059
0.00100573
0.00101679
0.00101646
0.00101614
0.00101583
0.00101553
0.00101523
0.00101493
0.00101464
0.00101436
0.00101408
0.00101381
0.00101354
0.00101327
0.00101301
0.00101276
0.00101251
0.00101226
0.00101202
0.00101178
0.00101154
0.00101131
0.00101108
0.00101085
0.00101062
0.0010104
0.00101018
0.00100996
0.00100974
0.00100952
0.0010093
0.00100908
0.00100887
0.00100865
0.00100843
0.00100822
0.001008
0.00100778
0.00100756
0.00100734
0.00100712
0.0010069
0.00100668
0.00100646
0.00100623
0.00100601
0.00100578
0.00100555
0.00100533
0.0010051
0.00100487
0.00101679
0.00101646
0.00101614
0.00101583
0.00101553
0.00101523
0.00101493
0.00101464
0.00101436
0.00101408
0.00101381
0.00101354
0.00101327
0.00101301
0.00101275
0.0010125
0.00101224
0.00101199
0.00101174
0.00101148
0.00101123
0.00101098
0.00101072
0.00101046
0.0010102
0.00100994
0.00100967
0.0010094
0.00100913
0.00100885
0.00100856
0.00100827
0.00100798
0.00100768
0.00100737
0.00100706
0.00100674
0.00100642
0.00100609
0.00100576
0.00100542
0.00100507
0.00100472
0.00100437
0.00100401
0.00100365
0.00100328
0.00100291
0.00100253
0.00100215
0.00101679
0.00101646
0.00101614
0.00101583
0.00101553
0.00101523
0.00101494
0.00101465
0.00101436
0.00101408
0.0010138
0.00101352
0.00101324
0.00101295