/*--------------------------------*- C++ -*----------------------------------*\
| =========                 |                                                 |
| \\      /  F ield         | OpenFOAM: The Open Source CFD Toolbox           |
|  \\    /   O peration     | Version:  5.x                                   |
|   \\  /    A nd           | Web:      www.OpenFOAM.org                      |
|    \\/     M anipulation  |                                                 |
\*---------------------------------------------------------------------------*/
FoamFile
{
    version     2.0;
    format      ascii;
    class       volScalarField;
    location    "600";
    object      p;
}
// * * * * * * * * * * * * * * * * * * * * * * * * * * * * * * * * * * * * * //

dimensions      [0 2 -2 0 0 0 0];

internalField   nonuniform List<scalar> 
15000
(
-7.22701
-8.71395
-9.41449
-9.62325
-9.75191
-9.85213
-9.91569
-9.95822
-9.99229
-10.0212
-10.0459
-10.0677
-10.0875
-10.1058
-10.123
-10.1392
-10.1547
-10.1695
-10.1839
-10.1978
-10.2114
-10.2247
-10.2378
-10.2507
-10.2635
-10.2762
-10.2888
-10.3013
-10.3138
-10.3263
-10.3387
-10.3513
-10.3638
-10.3764
-10.3891
-10.4018
-10.4146
-10.4276
-10.4406
-10.4537
-10.4669
-10.4801
-10.4933
-10.5064
-10.519
-10.5308
-10.5405
-10.5451
-10.5474
-10.4811
-10.2444
-10.2743
-10.1277
-9.98236
-9.9362
-9.94331
-9.95994
-9.9788
-10.0003
-10.0223
-10.043
-10.0624
-10.0807
-10.0978
-10.1141
-10.1295
-10.1443
-10.1586
-10.1724
-10.186
-10.1992
-10.2122
-10.2251
-10.2379
-10.2505
-10.2631
-10.2757
-10.2882
-10.3007
-10.3133
-10.3259
-10.3385
-10.3512
-10.364
-10.3768
-10.3898
-10.4028
-10.4159
-10.4292
-10.4425
-10.456
-10.4695
-10.483
-10.4966
-10.5102
-10.523
-10.5379
-10.5476
-10.5787
-10.6011
-9.92043
-9.60535
-9.64327
-9.7224
-9.79361
-9.86029
-9.91154
-9.95016
-9.98245
-10.0105
-10.0348
-10.0565
-10.0763
-10.0946
-10.1118
-10.1281
-10.1436
-10.1586
-10.173
-10.1871
-10.2009
-10.2144
-10.2276
-10.2407
-10.2537
-10.2665
-10.2793
-10.292
-10.3047
-10.3173
-10.33
-10.3427
-10.3554
-10.3682
-10.381
-10.3939
-10.4069
-10.42
-10.4332
-10.4465
-10.4598
-10.4733
-10.4869
-10.5006
-10.5144
-10.5281
-10.5431
-10.5573
-10.5822
-10.5994
-9.80451
-9.69026
-9.77796
-9.83581
-9.86757
-9.90451
-9.93828
-9.96641
-9.99205
-10.0159
-10.0378
-10.0579
-10.0768
-10.0945
-10.1112
-10.1272
-10.1425
-10.1572
-10.1716
-10.1855
-10.1991
-10.2125
-10.2256
-10.2386
-10.2515
-10.2642
-10.2769
-10.2895
-10.3021
-10.3147
-10.3273
-10.34
-10.3526
-10.3654
-10.3782
-10.391
-10.404
-10.4171
-10.4302
-10.4435
-10.457
-10.4705
-10.4842
-10.4981
-10.5123
-10.5268
-10.5428
-10.5593
-10.5823
-10.6056
-9.81033
-9.75805
-9.80176
-9.83831
-9.86624
-9.90208
-9.93622
-9.96513
-9.9912
-10.0152
-10.0372
-10.0574
-10.0761
-10.0938
-10.1105
-10.1265
-10.1418
-10.1565
-10.1709
-10.1848
-10.1985
-10.2119
-10.2252
-10.2382
-10.2511
-10.264
-10.2767
-10.2894
-10.3021
-10.3147
-10.3274
-10.3401
-10.3528
-10.3655
-10.3784
-10.3913
-10.4042
-10.4173
-10.4305
-10.4438
-10.4573
-10.471
-10.4848
-10.4989
-10.5134
-10.5284
-10.5448
-10.5622
-10.5839
-10.607
-9.82071
-9.78663
-9.81306
-9.8477
-9.87666
-9.90972
-9.94142
-9.96894
-9.99394
-10.0171
-10.0385
-10.0582
-10.0767
-10.0941
-10.1106
-10.1264
-10.1416
-10.1563
-10.1705
-10.1845
-10.1981
-10.2114
-10.2246
-10.2376
-10.2505
-10.2633
-10.276
-10.2887
-10.3013
-10.3139
-10.3265
-10.3392
-10.3518
-10.3646
-10.3773
-10.3902
-10.4031
-10.4162
-10.4294
-10.4427
-10.4562
-10.4698
-10.4837
-10.498
-10.5126
-10.528
-10.5444
-10.5622
-10.5826
-10.6046
-9.82922
-9.80866
-9.82883
-9.8599
-9.88685
-9.91651
-9.94584
-9.97211
-9.99621
-10.0187
-10.0395
-10.0589
-10.0771
-10.0944
-10.1107
-10.1264
-10.1415
-10.1561
-10.1703
-10.1842
-10.1978
-10.2111
-10.2243
-10.2373
-10.2501
-10.2629
-10.2756
-10.2882
-10.3008
-10.3134
-10.326
-10.3386
-10.3513
-10.364
-10.3767
-10.3896
-10.4025
-10.4155
-10.4287
-10.442
-10.4555
-10.4691
-10.4831
-10.4974
-10.5122
-10.5276
-10.544
-10.5616
-10.5809
-10.6015
-9.83958
-9.82858
-9.84452
-9.87125
-9.89613
-9.92317
-9.95042
-9.97546
-9.99866
-10.0204
-10.0408
-10.0598
-10.0777
-10.0947
-10.111
-10.1265
-10.1415
-10.1561
-10.1702
-10.184
-10.1975
-10.2108
-10.2239
-10.2369
-10.2497
-10.2624
-10.2751
-10.2877
-10.3003
-10.3128
-10.3254
-10.338
-10.3506
-10.3632
-10.3759
-10.3887
-10.4016
-10.4146
-10.4277
-10.441
-10.4544
-10.4681
-10.482
-10.4963
-10.5111
-10.5265
-10.5427
-10.5598
-10.5781
-10.5973
-9.85114
-9.84593
-9.85903
-9.88214
-9.90518
-9.92995
-9.95524
-9.979
-10.0013
-10.0223
-10.0421
-10.0607
-10.0784
-10.0951
-10.1112
-10.1266
-10.1415
-10.156
-10.17
-10.1838
-10.1972
-10.2105
-10.2236
-10.2365
-10.2493
-10.2619
-10.2746
-10.2871
-10.2997
-10.3122
-10.3247
-10.3372
-10.3498
-10.3624
-10.3751
-10.3878
-10.4006
-10.4136
-10.4266
-10.4399
-10.4532
-10.4669
-10.4807
-10.495
-10.5096
-10.5248
-10.5407
-10.5573
-10.5747
-10.5927
-9.86312
-9.86133
-9.87264
-9.8928
-9.91403
-9.93678
-9.96024
-9.98273
-10.0041
-10.0243
-10.0436
-10.0618
-10.0791
-10.0956
-10.1115
-10.1267
-10.1415
-10.1559
-10.1698
-10.1835
-10.1969
-10.2101
-10.2231
-10.236
-10.2487
-10.2614
-10.274
-10.2865
-10.299
-10.3114
-10.3239
-10.3364
-10.3489
-10.3614
-10.374
-10.3867
-10.3995
-10.4124
-10.4253
-10.4385
-10.4518
-10.4653
-10.4791
-10.4932
-10.5077
-10.5226
-10.5381
-10.5541
-10.5707
-10.5876
-9.87513
-9.87534
-9.88545
-9.90317
-9.92267
-9.94362
-9.9654
-9.98665
-10.007
-10.0265
-10.0452
-10.0629
-10.0799
-10.0962
-10.1118
-10.1269
-10.1415
-10.1557
-10.1696
-10.1832
-10.1965
-10.2097
-10.2226
-10.2354
-10.2481
-10.2607
-10.2732
-10.2857
-10.2981
-10.3106
-10.323
-10.3354
-10.3478
-10.3603
-10.3729
-10.3855
-10.3981
-10.4109
-10.4238
-10.4369
-10.4501
-10.4635
-10.4771
-10.4911
-10.5053
-10.5199
-10.535
-10.5504
-10.5662
-10.5822
-9.88696
-9.88828
-9.8975
-9.91321
-9.93108
-9.95042
-9.97066
-9.99071
-10.0101
-10.0289
-10.0469
-10.0642
-10.0808
-10.0968
-10.1122
-10.1271
-10.1416
-10.1556
-10.1694
-10.1829
-10.1962
-10.2092
-10.2221
-10.2348
-10.2475
-10.26
-10.2725
-10.2849
-10.2972
-10.3096
-10.3219
-10.3343
-10.3466
-10.359
-10.3715
-10.384
-10.3966
-10.4093
-10.4221
-10.435
-10.4481
-10.4613
-10.4748
-10.4885
-10.5025
-10.5168
-10.5313
-10.5462
-10.5613
-10.5764
-9.89846
-9.90036
-9.90885
-9.92289
-9.93927
-9.95715
-9.97599
-9.99489
-10.0134
-10.0314
-10.0488
-10.0656
-10.0818
-10.0975
-10.1126
-10.1273
-10.1416
-10.1556
-10.1692
-10.1826
-10.1957
-10.2087
-10.2215
-10.2342
-10.2467
-10.2592
-10.2716
-10.2839
-10.2962
-10.3085
-10.3207
-10.333
-10.3453
-10.3576
-10.37
-10.3824
-10.3949
-10.4075
-10.4201
-10.4329
-10.4458
-10.4589
-10.4722
-10.4856
-10.4993
-10.5132
-10.5273
-10.5416
-10.5561
-10.5705
-9.90954
-9.9117
-9.91956
-9.93221
-9.94723
-9.96378
-9.98134
-9.99915
-10.0168
-10.034
-10.0509
-10.0672
-10.083
-10.0983
-10.1132
-10.1276
-10.1417
-10.1555
-10.169
-10.1823
-10.1953
-10.2082
-10.2209
-10.2335
-10.2459
-10.2583
-10.2706
-10.2829
-10.2951
-10.3073
-10.3195
-10.3316
-10.3438
-10.3561
-10.3683
-10.3806
-10.393
-10.4054
-10.4179
-10.4306
-10.4433
-10.4562
-10.4692
-10.4824
-10.4958
-10.5093
-10.5229
-10.5367
-10.5505
-10.5643
-9.92016
-9.92239
-9.92968
-9.94115
-9.95495
-9.97029
-9.98668
-10.0035
-10.0202
-10.0368
-10.053
-10.0688
-10.0842
-10.0991
-10.1137
-10.128
-10.1419
-10.1555
-10.1688
-10.1819
-10.1949
-10.2076
-10.2202
-10.2327
-10.2451
-10.2574
-10.2696
-10.2818
-10.2939
-10.306
-10.3181
-10.3301
-10.3422
-10.3543
-10.3665
-10.3787
-10.3909
-10.4032
-10.4155
-10.428
-10.4405
-10.4532
-10.466
-10.4789
-10.4919
-10.505
-10.5182
-10.5315
-10.5448
-10.5579
-9.9303
-9.9325
-9.93926
-9.94972
-9.96242
-9.97666
-9.99197
-10.0078
-10.0237
-10.0396
-10.0552
-10.0705
-10.0855
-10.1001
-10.1144
-10.1283
-10.142
-10.1554
-10.1686
-10.1816
-10.1944
-10.207
-10.2195
-10.2319
-10.2442
-10.2564
-10.2685
-10.2806
-10.2926
-10.3046
-10.3165
-10.3285
-10.3405
-10.3525
-10.3645
-10.3765
-10.3886
-10.4007
-10.4129
-10.4252
-10.4375
-10.45
-10.4625
-10.4751
-10.4877
-10.5005
-10.5133
-10.526
-10.5388
-10.5514
-9.93996
-9.94207
-9.94834
-9.95793
-9.96964
-9.98287
-9.9972
-10.0121
-10.0273
-10.0424
-10.0574
-10.0722
-10.0868
-10.1011
-10.115
-10.1288
-10.1422
-10.1554
-10.1684
-10.1813
-10.1939
-10.2064
-10.2188
-10.2311
-10.2432
-10.2553
-10.2673
-10.2793
-10.2912
-10.3031
-10.3149
-10.3268
-10.3386
-10.3505
-10.3623
-10.3742
-10.3862
-10.3981
-10.4101
-10.4222
-10.4343
-10.4465
-10.4587
-10.471
-10.4833
-10.4957
-10.508
-10.5204
-10.5326
-10.5447
-9.94913
-9.95113
-9.95695
-9.96577
-9.97659
-9.98891
-10.0023
-10.0164
-10.0308
-10.0453
-10.0597
-10.0741
-10.0882
-10.1021
-10.1158
-10.1292
-10.1424
-10.1554
-10.1683
-10.1809
-10.1934
-10.2058
-10.218
-10.2302
-10.2422
-10.2542
-10.2661
-10.2779
-10.2897
-10.3015
-10.3132
-10.3249
-10.3366
-10.3483
-10.3601
-10.3718
-10.3835
-10.3953
-10.4071
-10.419
-10.4308
-10.4428
-10.4547
-10.4667
-10.4787
-10.4906
-10.5026
-10.5145
-10.5263
-10.5379
-9.95783
-9.95971
-9.96511
-9.97325
-9.98327
-9.99476
-10.0073
-10.0206
-10.0343
-10.0482
-10.0621
-10.0759
-10.0896
-10.1031
-10.1165
-10.1297
-10.1426
-10.1554
-10.1681
-10.1806
-10.1929
-10.2051
-10.2172
-10.2292
-10.2411
-10.253
-10.2647
-10.2765
-10.2881
-10.2998
-10.3114
-10.3229
-10.3345
-10.3461
-10.3576
-10.3692
-10.3808
-10.3923
-10.4039
-10.4156
-10.4272
-10.4388
-10.4505
-10.4621
-10.4738
-10.4854
-10.4969
-10.5084
-10.5198
-10.531
-9.96607
-9.96783
-9.97284
-9.98037
-9.98968
-10.0004
-10.0122
-10.0248
-10.0378
-10.051
-10.0644
-10.0777
-10.091
-10.1042
-10.1172
-10.1301
-10.1429
-10.1554
-10.1679
-10.1802
-10.1924
-10.2044
-10.2164
-10.2282
-10.24
-10.2517
-10.2633
-10.2749
-10.2865
-10.298
-10.3094
-10.3209
-10.3323
-10.3437
-10.3551
-10.3664
-10.3778
-10.3892
-10.4006
-10.4119
-10.4233
-10.4347
-10.4461
-10.4574
-10.4687
-10.4799
-10.4911
-10.5022
-10.5131
-10.5239
-9.97386
-9.9755
-9.98016
-9.98715
-9.99581
-10.0058
-10.017
-10.0288
-10.0412
-10.0539
-10.0667
-10.0796
-10.0925
-10.1053
-10.118
-10.1306
-10.1431
-10.1554
-10.1677
-10.1798
-10.1918
-10.2037
-10.2155
-10.2272
-10.2388
-10.2504
-10.2619
-10.2733
-10.2847
-10.2961
-10.3074
-10.3186
-10.3299
-10.3411
-10.3523
-10.3635
-10.3747
-10.3859
-10.397
-10.4082
-10.4193
-10.4304
-10.4414
-10.4525
-10.4634
-10.4743
-10.4851
-10.4958
-10.5064
-10.5167
-9.98121
-9.98274
-9.98707
-9.99358
-10.0017
-10.0111
-10.0215
-10.0328
-10.0445
-10.0566
-10.069
-10.0814
-10.0939
-10.1063
-10.1187
-10.1311
-10.1433
-10.1554
-10.1674
-10.1793
-10.1912
-10.2029
-10.2145
-10.2261
-10.2376
-10.249
-10.2603
-10.2716
-10.2828
-10.294
-10.3052
-10.3163
-10.3274
-10.3384
-10.3495
-10.3605
-10.3714
-10.3824
-10.3933
-10.4042
-10.4151
-10.4259
-10.4366
-10.4473
-10.458
-10.4685
-10.479
-10.4893
-10.4995
-10.5094
-9.98813
-9.98957
-9.9936
-9.99966
-10.0072
-10.016
-10.0259
-10.0366
-10.0478
-10.0594
-10.0712
-10.0832
-10.0953
-10.1074
-10.1195
-10.1315
-10.1435
-10.1553
-10.1671
-10.1789
-10.1905
-10.202
-10.2135
-10.2249
-10.2362
-10.2475
-10.2587
-10.2698
-10.2809
-10.2919
-10.3029
-10.3139
-10.3248
-10.3356
-10.3465
-10.3573
-10.368
-10.3787
-10.3894
-10.4001
-10.4107
-10.4212
-10.4317
-10.4421
-10.4524
-10.4626
-10.4727
-10.4826
-10.4924
-10.5021
-9.99464
-9.99598
-9.99975
-10.0054
-10.0125
-10.0208
-10.0301
-10.0402
-10.0509
-10.062
-10.0734
-10.085
-10.0966
-10.1084
-10.1202
-10.1319
-10.1436
-10.1552
-10.1668
-10.1783
-10.1898
-10.2011
-10.2124
-10.2237
-10.2348
-10.2459
-10.257
-10.2679
-10.2788
-10.2897
-10.3005
-10.3113
-10.322
-10.3327
-10.3433
-10.3539
-10.3645
-10.3749
-10.3854
-10.3958
-10.4061
-10.4163
-10.4265
-10.4366
-10.4466
-10.4565
-10.4662
-10.4759
-10.4853
-10.4946
-10.0007
-10.002
-10.0055
-10.0108
-10.0175
-10.0253
-10.0341
-10.0437
-10.0539
-10.0645
-10.0754
-10.0866
-10.0979
-10.1094
-10.1208
-10.1323
-10.1437
-10.1551
-10.1665
-10.1778
-10.189
-10.2002
-10.2113
-10.2224
-10.2334
-10.2443
-10.2551
-10.2659
-10.2767
-10.2874
-10.298
-10.3086
-10.3191
-10.3296
-10.3401
-10.3504
-10.3607
-10.371
-10.3812
-10.3913
-10.4014
-10.4113
-10.4212
-10.431
-10.4407
-10.4503
-10.4597
-10.469
-10.4781
-10.487
-10.0064
-10.0076
-10.0109
-10.0159
-10.0221
-10.0295
-10.0379
-10.047
-10.0567
-10.0669
-10.0774
-10.0882
-10.0992
-10.1103
-10.1214
-10.1326
-10.1438
-10.1549
-10.1661
-10.1771
-10.1882
-10.1992
-10.2101
-10.221
-10.2318
-10.2426
-10.2532
-10.2639
-10.2745
-10.285
-10.2954
-10.3058
-10.3162
-10.3264
-10.3367
-10.3468
-10.3569
-10.3669
-10.3769
-10.3867
-10.3965
-10.4062
-10.4158
-10.4253
-10.4347
-10.4439
-10.453
-10.4619
-10.4707
-10.4793
-10.0117
-10.0128
-10.0159
-10.0206
-10.0265
-10.0335
-10.0414
-10.0501
-10.0594
-10.0692
-10.0793
-10.0897
-10.1003
-10.1111
-10.1219
-10.1328
-10.1437
-10.1547
-10.1656
-10.1765
-10.1873
-10.1981
-10.2088
-10.2195
-10.2302
-10.2407
-10.2513
-10.2617
-10.2721
-10.2824
-10.2927
-10.3029
-10.313
-10.3231
-10.3331
-10.3431
-10.3529
-10.3627
-10.3724
-10.382
-10.3915
-10.4009
-10.4102
-10.4194
-10.4285
-10.4374
-10.4462
-10.4548
-10.4633
-10.4716
-10.0167
-10.0177
-10.0206
-10.025
-10.0306
-10.0372
-10.0447
-10.053
-10.0619
-10.0713
-10.081
-10.0911
-10.1014
-10.1118
-10.1224
-10.133
-10.1437
-10.1543
-10.165
-10.1757
-10.1863
-10.1969
-10.2075
-10.218
-10.2284
-10.2388
-10.2492
-10.2594
-10.2697
-10.2798
-10.2899
-10.2999
-10.3098
-10.3197
-10.3295
-10.3392
-10.3488
-10.3583
-10.3678
-10.3771
-10.3864
-10.3955
-10.4045
-10.4134
-10.4222
-10.4308
-10.4393
-10.4476
-10.4558
-10.4637
-10.0212
-10.0222
-10.0249
-10.0291
-10.0344
-10.0406
-10.0478
-10.0557
-10.0642
-10.0732
-10.0826
-10.0924
-10.1023
-10.1125
-10.1227
-10.1331
-10.1435
-10.1539
-10.1644
-10.1749
-10.1853
-10.1957
-10.2061
-10.2164
-10.2266
-10.2369
-10.247
-10.2571
-10.2671
-10.2771
-10.2869
-10.2967
-10.3065
-10.3161
-10.3257
-10.3352
-10.3446
-10.3539
-10.3631
-10.3721
-10.3811
-10.39
-10.3987
-10.4073
-10.4158
-10.4241
-10.4323
-10.4403
-10.4482
-10.4558
-10.0253
-10.0263
-10.0289
-10.0328
-10.0378
-10.0438
-10.0506
-10.0582
-10.0664
-10.075
-10.0841
-10.0935
-10.1031
-10.113
-10.123
-10.1331
-10.1432
-10.1535
-10.1637
-10.1739
-10.1842
-10.1944
-10.2045
-10.2147
-10.2248
-10.2348
-10.2447
-10.2546
-10.2645
-10.2742
-10.2839
-10.2935
-10.303
-10.3125
-10.3218
-10.3311
-10.3402
-10.3493
-10.3582
-10.367
-10.3758
-10.3843
-10.3928
-10.4011
-10.4093
-10.4173
-10.4252
-10.4329
-10.4405
-10.4478
-10.0291
-10.03
-10.0324
-10.0362
-10.041
-10.0467
-10.0532
-10.0604
-10.0683
-10.0766
-10.0854
-10.0944
-10.1038
-10.1134
-10.1231
-10.133
-10.1429
-10.1529
-10.1629
-10.1729
-10.183
-10.193
-10.2029
-10.2129
-10.2228
-10.2326
-10.2424
-10.2521
-10.2617
-10.2713
-10.2808
-10.2902
-10.2995
-10.3087
-10.3178
-10.3268
-10.3357
-10.3446
-10.3533
-10.3618
-10.3703
-10.3786
-10.3868
-10.3948
-10.4027
-10.4105
-10.4181
-10.4255
-10.4327
-10.4398
-10.0325
-10.0333
-10.0357
-10.0392
-10.0438
-10.0492
-10.0555
-10.0624
-10.0699
-10.078
-10.0864
-10.0953
-10.1043
-10.1136
-10.1231
-10.1327
-10.1424
-10.1522
-10.162
-10.1718
-10.1816
-10.1915
-10.2012
-10.211
-10.2207
-10.2303
-10.2399
-10.2494
-10.2589
-10.2682
-10.2775
-10.2867
-10.2958
-10.3048
-10.3137
-10.3225
-10.3312
-10.3397
-10.3482
-10.3565
-10.3647
-10.3728
-10.3807
-10.3885
-10.3961
-10.4035
-10.4108
-10.418
-10.4249
-10.4317
-10.0355
-10.0363
-10.0385
-10.0419
-10.0463
-10.0515
-10.0575
-10.0641
-10.0714
-10.0792
-10.0873
-10.0959
-10.1047
-10.1137
-10.123
-10.1324
-10.1418
-10.1514
-10.161
-10.1706
-10.1802
-10.1898
-10.1994
-10.209
-10.2185
-10.228
-10.2374
-10.2467
-10.2559
-10.2651
-10.2742
-10.2832
-10.292
-10.3008
-10.3095
-10.3181
-10.3265
-10.3348
-10.343
-10.3511
-10.3591
-10.3668
-10.3745
-10.382
-10.3893
-10.3965
-10.4035
-10.4104
-10.4171
-10.4236
-10.0381
-10.0389
-10.041
-10.0443
-10.0484
-10.0534
-10.0592
-10.0656
-10.0726
-10.0801
-10.088
-10.0963
-10.1049
-10.1137
-10.1227
-10.1319
-10.1411
-10.1505
-10.1598
-10.1693
-10.1787
-10.1881
-10.1975
-10.2069
-10.2162
-10.2255
-10.2347
-10.2438
-10.2529
-10.2619
-10.2707
-10.2795
-10.2882
-10.2968
-10.3052
-10.3136
-10.3218
-10.3299
-10.3378
-10.3456
-10.3533
-10.3609
-10.3682
-10.3755
-10.3825
-10.3895
-10.3962
-10.4028
-10.4092
-10.4154
-10.0403
-10.041
-10.0431
-10.0462
-10.0502
-10.055
-10.0606
-10.0668
-10.0735
-10.0808
-10.0885
-10.0965
-10.1049
-10.1135
-10.1223
-10.1312
-10.1403
-10.1494
-10.1586
-10.1678
-10.1771
-10.1863
-10.1955
-10.2047
-10.2139
-10.2229
-10.232
-10.2409
-10.2498
-10.2585
-10.2672
-10.2758
-10.2843
-10.2926
-10.3008
-10.309
-10.3169
-10.3248
-10.3325
-10.3401
-10.3475
-10.3548
-10.3619
-10.3689
-10.3757
-10.3823
-10.3888
-10.3951
-10.4012
-10.4072
-10.0421
-10.0428
-10.0448
-10.0478
-10.0517
-10.0563
-10.0616
-10.0676
-10.0742
-10.0813
-10.0887
-10.0966
-10.1047
-10.1131
-10.1217
-10.1304
-10.1392
-10.1482
-10.1572
-10.1663
-10.1753
-10.1844
-10.1934
-10.2024
-10.2114
-10.2203
-10.2291
-10.2379
-10.2465
-10.2551
-10.2636
-10.272
-10.2802
-10.2884
-10.2964
-10.3043
-10.312
-10.3197
-10.3271
-10.3345
-10.3417
-10.3487
-10.3556
-10.3623
-10.3688
-10.3752
-10.3814
-10.3875
-10.3933
-10.399
-10.0436
-10.0443
-10.0461
-10.049
-10.0528
-10.0572
-10.0624
-10.0682
-10.0746
-10.0814
-10.0887
-10.0964
-10.1043
-10.1125
-10.1209
-10.1294
-10.1381
-10.1469
-10.1557
-10.1646
-10.1735
-10.1823
-10.1912
-10.2
-10.2088
-10.2175
-10.2262
-10.2348
-10.2432
-10.2516
-10.2599
-10.2681
-10.2761
-10.2841
-10.2919
-10.2995
-10.3071
-10.3145
-10.3217
-10.3288
-10.3358
-10.3425
-10.3492
-10.3556
-10.3619
-10.368
-10.374
-10.3798
-10.3854
-10.3908
-10.0446
-10.0453
-10.0471
-10.0499
-10.0535
-10.0578
-10.0628
-10.0685
-10.0747
-10.0814
-10.0884
-10.0959
-10.1037
-10.1117
-10.1199
-10.1283
-10.1368
-10.1454
-10.154
-10.1627
-10.1715
-10.1802
-10.1889
-10.1975
-10.2061
-10.2147
-10.2232
-10.2316
-10.2399
-10.2481
-10.2561
-10.2641
-10.272
-10.2797
-10.2873
-10.2948
-10.3021
-10.3092
-10.3163
-10.3231
-10.3298
-10.3364
-10.3428
-10.349
-10.355
-10.3609
-10.3666
-10.3721
-10.3775
-10.3826
-10.0452
-10.0458
-10.0476
-10.0503
-10.0538
-10.058
-10.0629
-10.0684
-10.0744
-10.081
-10.0879
-10.0952
-10.1028
-10.1106
-10.1187
-10.1269
-10.1353
-10.1437
-10.1522
-10.1608
-10.1693
-10.1779
-10.1864
-10.1949
-10.2034
-10.2117
-10.2201
-10.2283
-10.2364
-10.2444
-10.2523
-10.2601
-10.2677
-10.2753
-10.2827
-10.2899
-10.297
-10.304
-10.3108
-10.3174
-10.3239
-10.3302
-10.3363
-10.3423
-10.3481
-10.3537
-10.3592
-10.3645
-10.3696
-10.3745
-10.0454
-10.046
-10.0477
-10.0504
-10.0537
-10.0578
-10.0626
-10.068
-10.0739
-10.0803
-10.0871
-10.0942
-10.1017
-10.1094
-10.1173
-10.1254
-10.1336
-10.1419
-10.1502
-10.1586
-10.1671
-10.1755
-10.1839
-10.1922
-10.2005
-10.2087
-10.2169
-10.2249
-10.2328
-10.2407
-10.2484
-10.256
-10.2635
-10.2708
-10.278
-10.285
-10.2919
-10.2987
-10.3052
-10.3117
-10.3179
-10.324
-10.3299
-10.3356
-10.3412
-10.3466
-10.3518
-10.3569
-10.3617
-10.3664
-10.0451
-10.0457
-10.0474
-10.05
-10.0533
-10.0573
-10.0619
-10.0672
-10.073
-10.0793
-10.086
-10.093
-10.1003
-10.1079
-10.1157
-10.1236
-10.1317
-10.1399
-10.1481
-10.1564
-10.1647
-10.1729
-10.1812
-10.1894
-10.1975
-10.2056
-10.2136
-10.2215
-10.2292
-10.2369
-10.2445
-10.2519
-10.2591
-10.2663
-10.2733
-10.2801
-10.2868
-10.2934
-10.2997
-10.3059
-10.312
-10.3178
-10.3235
-10.329
-10.3344
-10.3395
-10.3445
-10.3493
-10.3539
-10.3584
-10.0444
-10.045
-10.0466
-10.0491
-10.0524
-10.0563
-10.0609
-10.0661
-10.0718
-10.0779
-10.0845
-10.0914
-10.0987
-10.1062
-10.1138
-10.1217
-10.1296
-10.1377
-10.1458
-10.154
-10.1621
-10.1703
-10.1784
-10.1865
-10.1945
-10.2024
-10.2102
-10.2179
-10.2256
-10.2331
-10.2404
-10.2477
-10.2548
-10.2618
-10.2686
-10.2752
-10.2817
-10.288
-10.2942
-10.3002
-10.306
-10.3117
-10.3171
-10.3224
-10.3276
-10.3325
-10.3372
-10.3418
-10.3462
-10.3504
-10.0432
-10.0438
-10.0454
-10.0479
-10.051
-10.0549
-10.0594
-10.0645
-10.0701
-10.0762
-10.0827
-10.0896
-10.0968
-10.1042
-10.1118
-10.1195
-10.1274
-10.1353
-10.1434
-10.1514
-10.1595
-10.1675
-10.1755
-10.1834
-10.1913
-10.1991
-10.2068
-10.2144
-10.2218
-10.2292
-10.2364
-10.2435
-10.2504
-10.2572
-10.2638
-10.2703
-10.2766
-10.2828
-10.2887
-10.2945
-10.3001
-10.3056
-10.3108
-10.3159
-10.3208
-10.3255
-10.3301
-10.3344
-10.3386
-10.3426
-10.0416
-10.0421
-10.0437
-10.0461
-10.0492
-10.053
-10.0575
-10.0625
-10.0681
-10.0742
-10.0806
-10.0874
-10.0945
-10.1019
-10.1094
-10.1171
-10.1249
-10.1328
-10.1407
-10.1487
-10.1566
-10.1646
-10.1725
-10.1803
-10.188
-10.1957
-10.2033
-10.2107
-10.2181
-10.2253
-10.2323
-10.2393
-10.246
-10.2527
-10.2591
-10.2654
-10.2715
-10.2775
-10.2833
-10.2889
-10.2943
-10.2995
-10.3046
-10.3095
-10.3142
-10.3187
-10.323
-10.3272
-10.3311
-10.3349
-10.0394
-10.04
-10.0415
-10.0439
-10.0469
-10.0507
-10.0551
-10.0601
-10.0657
-10.0717
-10.0782
-10.085
-10.092
-10.0993
-10.1068
-10.1145
-10.1222
-10.1301
-10.1379
-10.1458
-10.1537
-10.1615
-10.1693
-10.1771
-10.1847
-10.1923
-10.1997
-10.2071
-10.2143
-10.2213
-10.2283
-10.235
-10.2417
-10.2481
-10.2544
-10.2605
-10.2665
-10.2723
-10.2779
-10.2833
-10.2885
-10.2936
-10.2985
-10.3032
-10.3076
-10.312
-10.3161
-10.32
-10.3238
-10.3274
-10.0368
-10.0373
-10.0388
-10.0411
-10.0441
-10.0479
-10.0523
-10.0573
-10.0628
-10.0689
-10.0753
-10.0821
-10.0892
-10.0965
-10.104
-10.1116
-10.1193
-10.1271
-10.135
-10.1428
-10.1506
-10.1584
-10.1661
-10.1738
-10.1813
-10.1888
-10.1961
-10.2033
-10.2104
-10.2174
-10.2242
-10.2308
-10.2373
-10.2436
-10.2497
-10.2557
-10.2615
-10.2671
-10.2726
-10.2778
-10.2829
-10.2877
-10.2924
-10.2969
-10.3012
-10.3054
-10.3093
-10.3131
-10.3166
-10.32
-10.0336
-10.0341
-10.0355
-10.0378
-10.0408
-10.0445
-10.0489
-10.0539
-10.0595
-10.0656
-10.0721
-10.0789
-10.086
-10.0934
-10.1009
-10.1085
-10.1163
-10.124
-10.1318
-10.1396
-10.1474
-10.1551
-10.1628
-10.1704
-10.1779
-10.1852
-10.1925
-10.1996
-10.2066
-10.2134
-10.2201
-10.2266
-10.233
-10.2391
-10.2451
-10.251
-10.2566
-10.2621
-10.2673
-10.2724
-10.2773
-10.282
-10.2866
-10.2909
-10.295
-10.299
-10.3027
-10.3063
-10.3096
-10.3128
-10.0299
-10.0304
-10.0317
-10.0339
-10.0368
-10.0405
-10.045
-10.05
-10.0557
-10.0619
-10.0684
-10.0753
-10.0825
-10.0899
-10.0975
-10.1052
-10.1129
-10.1207
-10.1285
-10.1363
-10.144
-10.1517
-10.1594
-10.1669
-10.1743
-10.1816
-10.1888
-10.1958
-10.2027
-10.2094
-10.216
-10.2224
-10.2286
-10.2347
-10.2406
-10.2463
-10.2518
-10.2571
-10.2622
-10.2672
-10.2719
-10.2765
-10.2808
-10.285
-10.2889
-10.2927
-10.2963
-10.2997
-10.3029
-10.3059
-10.0256
-10.026
-10.0273
-10.0293
-10.0322
-10.0359
-10.0404
-10.0456
-10.0514
-10.0577
-10.0644
-10.0714
-10.0787
-10.0862
-10.0939
-10.1016
-10.1095
-10.1173
-10.1251
-10.1329
-10.1407
-10.1484
-10.1559
-10.1634
-10.1708
-10.178
-10.1851
-10.1921
-10.1989
-10.2056
-10.212
-10.2183
-10.2245
-10.2304
-10.2362
-10.2417
-10.2471
-10.2523
-10.2573
-10.2621
-10.2667
-10.2711
-10.2753
-10.2793
-10.2831
-10.2867
-10.2901
-10.2934
-10.2964
-10.2992
-10.0208
-10.0212
-10.0222
-10.0241
-10.0269
-10.0306
-10.0352
-10.0405
-10.0464
-10.0528
-10.0597
-10.0669
-10.0744
-10.082
-10.0898
-10.0976
-10.1055
-10.1134
-10.1213
-10.1292
-10.1369
-10.1446
-10.1522
-10.1597
-10.167
-10.1743
-10.1813
-10.1882
-10.195
-10.2016
-10.208
-10.2142
-10.2202
-10.2261
-10.2318
-10.2372
-10.2425
-10.2476
-10.2524
-10.2571
-10.2616
-10.2659
-10.2699
-10.2738
-10.2775
-10.281
-10.2842
-10.2873
-10.2902
-10.2929
-10.0156
-10.0158
-10.0165
-10.018
-10.0208
-10.0246
-10.0293
-10.0349
-10.0411
-10.0479
-10.0551
-10.0626
-10.0702
-10.0781
-10.086
-10.094
-10.102
-10.11
-10.118
-10.1259
-10.1337
-10.1414
-10.1489
-10.1564
-10.1637
-10.1709
-10.1779
-10.1848
-10.1914
-10.1979
-10.2043
-10.2104
-10.2163
-10.2221
-10.2276
-10.233
-10.2382
-10.2431
-10.2479
-10.2524
-10.2568
-10.2609
-10.2648
-10.2686
-10.2721
-10.2754
-10.2786
-10.2815
-10.2843
-10.2868
-10.01
-10.0099
-10.01
-10.011
-10.0135
-10.0173
-10.0221
-10.0277
-10.0341
-10.0411
-10.0485
-10.0562
-10.0642
-10.0723
-10.0805
-10.0887
-10.0969
-10.1051
-10.1132
-10.1212
-10.1291
-10.1369
-10.1446
-10.1521
-10.1595
-10.1667
-10.1738
-10.1807
-10.1874
-10.1939
-10.2002
-10.2063
-10.2122
-10.2179
-10.2234
-10.2287
-10.2338
-10.2387
-10.2434
-10.2479
-10.2522
-10.2562
-10.2601
-10.2637
-10.2671
-10.2704
-10.2734
-10.2762
-10.2789
-10.2813
-10.0043
-10.0037
-10.0026
-10.0031
-10.0059
-10.0104
-10.016
-10.0225
-10.0297
-10.0374
-10.0453
-10.0534
-10.0616
-10.0699
-10.0783
-10.0866
-10.0948
-10.103
-10.1111
-10.1191
-10.1269
-10.1347
-10.1423
-10.1497
-10.157
-10.1641
-10.1711
-10.1778
-10.1844
-10.1908
-10.197
-10.203
-10.2088
-10.2144
-10.2198
-10.225
-10.2299
-10.2347
-10.2393
-10.2436
-10.2478
-10.2517
-10.2554
-10.2589
-10.2622
-10.2653
-10.2682
-10.2709
-10.2734
-10.2757
-9.99906
-9.99713
-9.99358
-9.99206
-9.99343
-9.99675
-10.0017
-10.008
-10.0155
-10.0236
-10.0321
-10.041
-10.0499
-10.059
-10.068
-10.077
-10.0859
-10.0947
-10.1033
-10.1118
-10.1201
-10.1282
-10.1362
-10.1439
-10.1515
-10.1589
-10.1661
-10.173
-10.1798
-10.1863
-10.1927
-10.1988
-10.2047
-10.2104
-10.2158
-10.2211
-10.2261
-10.2309
-10.2355
-10.2398
-10.244
-10.2479
-10.2516
-10.2551
-10.2583
-10.2614
-10.2642
-10.2669
-10.2693
-10.2715
-9.99554
-9.9911
-9.98557
-9.98679
-9.99298
-10.0001
-10.0073
-10.0151
-10.0233
-10.0317
-10.0401
-10.0485
-10.0569
-10.0653
-10.0736
-10.0819
-10.09
-10.0981
-10.1061
-10.114
-10.1217
-10.1293
-10.1368
-10.1441
-10.1513
-10.1582
-10.165
-10.1717
-10.1781
-10.1843
-10.1904
-10.1962
-10.2019
-10.2073
-10.2126
-10.2176
-10.2224
-10.227
-10.2314
-10.2356
-10.2395
-10.2433
-10.2468
-10.2502
-10.2533
-10.2562
-10.2589
-10.2614
-10.2637
-10.2659
-9.99639
-9.98057
-9.95651
-9.9437
-9.94243
-9.94717
-9.95541
-9.96587
-9.97741
-9.98941
-10.0015
-10.0136
-10.0254
-10.0369
-10.0481
-10.059
-10.0695
-10.0797
-10.0896
-10.0992
-10.1084
-10.1174
-10.126
-10.1344
-10.1426
-10.1504
-10.158
-10.1653
-10.1724
-10.1792
-10.1857
-10.192
-10.1981
-10.2039
-10.2094
-10.2147
-10.2198
-10.2246
-10.2292
-10.2336
-10.2377
-10.2416
-10.2452
-10.2486
-10.2518
-10.2548
-10.2575
-10.26
-10.2622
-10.2642
-10.0109
-10.0009
-10.0068
-10.0208
-10.0275
-10.0299
-10.0335
-10.0383
-10.0432
-10.0483
-10.0537
-10.0594
-10.0654
-10.0717
-10.0781
-10.0848
-10.0915
-10.0984
-10.1053
-10.1122
-10.1191
-10.126
-10.1328
-10.1396
-10.1462
-10.1528
-10.1592
-10.1655
-10.1717
-10.1776
-10.1835
-10.1891
-10.1946
-10.1998
-10.2049
-10.2098
-10.2145
-10.219
-10.2232
-10.2273
-10.2312
-10.2348
-10.2383
-10.2415
-10.2445
-10.2473
-10.25
-10.2524
-10.2547
-10.2568
-10.0201
-9.80055
-9.71418
-9.73644
-9.77498
-9.80687
-9.83753
-9.86783
-9.89586
-9.9212
-9.94419
-9.96513
-9.98427
-10.0018
-10.018
-10.0331
-10.0471
-10.0602
-10.0726
-10.0842
-10.0953
-10.1057
-10.1157
-10.1252
-10.1343
-10.1429
-10.1512
-10.1591
-10.1667
-10.174
-10.1809
-10.1875
-10.1938
-10.1998
-10.2056
-10.211
-10.2162
-10.2211
-10.2258
-10.2302
-10.2343
-10.2382
-10.2418
-10.2452
-10.2484
-10.2513
-10.2539
-10.2563
-10.2584
-10.2602
-10.5333
-10.4411
-10.2896
-10.1887
-10.1401
-10.112
-10.0915
-10.0767
-10.0674
-10.0624
-10.0605
-10.0609
-10.0629
-10.0663
-10.0706
-10.0758
-10.0814
-10.0876
-10.094
-10.1006
-10.1074
-10.1143
-10.1211
-10.128
-10.1349
-10.1416
-10.1483
-10.1548
-10.1612
-10.1675
-10.1736
-10.1795
-10.1852
-10.1907
-10.1961
-10.2012
-10.2061
-10.2108
-10.2153
-10.2196
-10.2236
-10.2274
-10.231
-10.2344
-10.2376
-10.2406
-10.2433
-10.2459
-10.2482
-10.2504
-8.44971
-8.99063
-9.40794
-9.5849
-9.67591
-9.75663
-9.82254
-9.87003
-9.90613
-9.93598
-9.96118
-9.98262
-10.0013
-10.0179
-10.0329
-10.0466
-10.0593
-10.0712
-10.0823
-10.0929
-10.1029
-10.1124
-10.1216
-10.1303
-10.1387
-10.1467
-10.1544
-10.1618
-10.169
-10.1758
-10.1823
-10.1886
-10.1946
-10.2003
-10.2058
-10.211
-10.216
-10.2207
-10.2251
-10.2293
-10.2333
-10.237
-10.2405
-10.2438
-10.2468
-10.2496
-10.2522
-10.2546
-10.2567
-10.2587
-10.6586
-10.6006
-10.6688
-10.7419
-10.7895
-10.8297
-10.8609
-10.8807
-10.8927
-10.9012
-10.9086
-10.9167
-10.9265
-10.9386
-10.9531
-10.97
-10.9891
-11.0104
-11.0335
-11.0584
-11.0846
-11.1121
-11.1406
-11.1699
-11.1998
-11.2301
-11.2607
-11.2914
-11.322
-11.3525
-11.3828
-11.4125
-11.4417
-11.4703
-11.4982
-11.5258
-11.5531
-11.5804
-11.6075
-11.6342
-11.6597
-11.6827
-11.702
-11.7158
-11.7229
-11.7222
-11.713
-11.695
-11.6684
-11.6333
-11.5901
-11.5388
-11.4793
-11.4115
-11.3347
-11.2483
-11.1514
-11.0434
-10.9235
-10.7909
-10.6452
-10.4858
-10.3125
-10.1252
-9.92375
-9.7084
-9.47947
-9.23749
-8.98319
-8.71747
-8.44141
-8.15626
-7.86341
-7.56437
-7.26074
-6.9542
-6.64647
-6.3393
-6.03444
-5.73363
-5.43863
-5.15117
-4.87298
-4.60583
-4.35156
-4.11212
-3.8896
-3.68632
-3.50485
-3.34799
-3.21874
-3.12004
-3.0541
-3.02159
-3.02034
-3.04228
-3.07254
-3.09629
-3.1051
-3.09609
-3.06911
-3.02524
-2.96622
-2.89406
-2.81077
-2.71819
-2.61798
-2.51157
-2.40024
-2.28507
-2.16705
-2.04705
-1.92587
-1.80421
-1.68274
-1.56206
-1.44273
-1.32525
-1.21009
-1.09767
-0.988359
-0.882511
-0.780433
-0.682413
-0.588716
-0.499597
-0.415294
-0.336036
-0.262041
-0.193533
-0.1308
-0.0742847
-0.024613
0.0172831
0.0502999
0.0736777
0.0867309
0.0904291
0.0885129
0.077723
0.0551901
0.0350272
0.0250286
0.0189191
0.0148389
0.00705246
0.00564209
-0.0104779
0.00556356
-0.0418056
-10.7143
-10.7553
-10.7743
-10.795
-10.8077
-10.8189
-10.8299
-10.8398
-10.8492
-10.8593
-10.8703
-10.8826
-10.8961
-10.9113
-10.928
-10.9465
-10.9667
-10.9886
-11.0121
-11.0371
-11.0635
-11.091
-11.1195
-11.1487
-11.1785
-11.2086
-11.239
-11.2694
-11.2998
-11.33
-11.3599
-11.3892
-11.418
-11.4461
-11.4735
-11.5005
-11.5271
-11.5537
-11.58
-11.6058
-11.6304
-11.6525
-11.6708
-11.6837
-11.6898
-11.688
-11.6776
-11.6585
-11.6307
-11.5945
-11.5501
-11.4978
-11.4375
-11.3689
-11.2914
-11.2044
-11.1072
-10.9988
-10.8787
-10.7461
-10.6005
-10.4414
-10.2686
-10.082
-9.88159
-9.66754
-9.44022
-9.20017
-8.94811
-8.68494
-8.41172
-8.12969
-7.84018
-7.54468
-7.24474
-6.94199
-6.63811
-6.3348
-6.03375
-5.73667
-5.44524
-5.16116
-4.8861
-4.62177
-4.36994
-4.13248
-3.91143
-3.70903
-3.52778
-3.37046
-3.24007
-3.13963
-3.07166
-3.03746
-3.03646
-3.06325
-3.10378
-3.13984
-3.15859
-3.15545
-3.13086
-3.08712
-3.02695
-2.95299
-2.8676
-2.77282
-2.6704
-2.56183
-2.44839
-2.3312
-2.21123
-2.08935
-1.96636
-1.84296
-1.71981
-1.59751
-1.47662
-1.35762
-1.24099
-1.12714