/*--------------------------------*- C++ -*----------------------------------*\
| =========                 |                                                 |
| \\      /  F ield         | OpenFOAM: The Open Source CFD Toolbox           |
|  \\    /   O peration     | Version:  5.x                                   |
|   \\  /    A nd           | Web:      www.OpenFOAM.org                      |
|    \\/     M anipulation  |                                                 |
\*---------------------------------------------------------------------------*/
FoamFile
{
    version     2.0;
    format      ascii;
    class       surfaceScalarField;
    location    "600";
    object      phi;
}
// * * * * * * * * * * * * * * * * * * * * * * * * * * * * * * * * * * * * * //

dimensions      [0 3 -1 0 0 0 0];

internalField   nonuniform List<scalar> 
29720
(
4.03351e-05
-1.21755e-07
4.00869e-05
2.48198e-07
3.96789e-05
4.08035e-07
3.91382e-05
5.40698e-07
3.85517e-05
5.86478e-07
3.799e-05
5.6172e-07
3.74773e-05
5.12726e-07
3.70157e-05
4.61556e-07
3.66016e-05
4.14139e-07
3.62296e-05
3.71959e-07
3.58944e-05
3.35255e-07
3.55908e-05
3.03595e-07
3.53145e-05
2.76289e-07
3.50618e-05
2.52665e-07
3.48297e-05
2.32148e-07
3.46154e-05
2.14255e-07
3.44169e-05
1.98575e-07
3.42321e-05
1.84767e-07
3.40595e-05
1.72547e-07
3.38979e-05
1.61675e-07
3.37459e-05
1.51953e-07
3.36027e-05
1.43212e-07
3.34674e-05
1.35312e-07
3.33392e-05
1.28136e-07
3.32177e-05
1.21585e-07
3.31021e-05
1.15574e-07
3.29921e-05
1.10035e-07
3.28871e-05
1.04907e-07
3.2787e-05
1.00141e-07
3.26913e-05
9.5694e-08
3.25998e-05
9.15292e-08
3.25122e-05
8.76159e-08
3.24282e-05
8.39272e-08
3.23478e-05
8.04407e-08
3.22707e-05
7.71371e-08
3.21967e-05
7.40005e-08
3.21256e-05
7.10187e-08
3.20575e-05
6.81831e-08
3.1992e-05
6.54905e-08
3.1929e-05
6.29449e-08
3.18685e-05
6.05642e-08
3.18101e-05
5.83842e-08
3.17536e-05
5.64973e-08
3.16985e-05
5.50612e-08
3.16441e-05
5.44197e-08
3.15882e-05
5.59264e-08
3.15296e-05
5.85379e-08
3.14482e-05
8.14238e-08
3.13532e-05
9.50604e-08
1.68497e-07
3.11847e-05
4.10551e-05
-2.07621e-07
4.10664e-05
2.36831e-07
4.11012e-05
3.73242e-07
4.1162e-05
4.79925e-07
4.12083e-05
5.40175e-07
4.12146e-05
5.55411e-07
4.11779e-05
5.49423e-07
4.11052e-05
5.34273e-07
4.10054e-05
5.13887e-07
4.08867e-05
4.90735e-07
4.07552e-05
4.66772e-07
4.06156e-05
4.43164e-07
4.04714e-05
4.20484e-07
4.0325e-05
3.99014e-07
4.01783e-05
3.78876e-07
4.00325e-05
3.60096e-07
3.98884e-05
3.42635e-07
3.97468e-05
3.26423e-07
3.96079e-05
3.11372e-07
3.94722e-05
2.9739e-07
3.93398e-05
2.84384e-07
3.92107e-05
2.72263e-07
3.90851e-05
2.60944e-07
3.89629e-05
2.50349e-07
3.88441e-05
2.40407e-07
3.87286e-05
2.31053e-07
3.86164e-05
2.22232e-07
3.85074e-05
2.13891e-07
3.84016e-05
2.05986e-07
3.82988e-05
1.98475e-07
3.8199e-05
1.91322e-07
3.81021e-05
1.84497e-07
3.80081e-05
1.77971e-07
3.79168e-05
1.71719e-07
3.78282e-05
1.65721e-07
3.77422e-05
1.59957e-07
3.76588e-05
1.54415e-07
3.75779e-05
1.49084e-07
3.74995e-05
1.43959e-07
3.74234e-05
1.39043e-07
3.73496e-05
1.34352e-07
3.7278e-05
1.29926e-07
3.72087e-05
1.25827e-07
3.71415e-05
1.22249e-07
3.70767e-05
1.19266e-07
3.70144e-05
1.18182e-07
3.69558e-05
1.17213e-07
3.69101e-05
1.27107e-07
3.68809e-05
1.24236e-07
1.63473e-07
3.68859e-05
4.16211e-05
-8.94628e-08
4.16761e-05
1.81755e-07
4.17392e-05
3.10172e-07
4.18125e-05
4.06651e-07
4.18771e-05
4.75515e-07
4.19239e-05
5.08637e-07
4.1953e-05
5.20368e-07
4.1966e-05
5.21256e-07
4.19646e-05
5.15226e-07
4.19508e-05
5.04602e-07
4.19262e-05
4.91317e-07
4.18927e-05
4.76663e-07
4.18518e-05
4.61399e-07
4.18048e-05
4.46002e-07
4.17529e-05
4.30786e-07
4.16971e-05
4.1595e-07
4.16381e-05
4.01607e-07
4.15767e-05
3.87819e-07
4.15135e-05
3.74609e-07
4.14489e-05
3.6198e-07
4.13833e-05
3.49917e-07
4.13172e-05
3.38397e-07
4.12508e-05
3.27392e-07
4.11842e-05
3.1687e-07
4.11178e-05
3.068e-07
4.10517e-05
2.97149e-07
4.09861e-05
2.87887e-07
4.0921e-05
2.78986e-07
4.08566e-05
2.70418e-07
4.07929e-05
2.62158e-07
4.073e-05
2.54185e-07
4.0668e-05
2.46476e-07
4.0607e-05
2.39013e-07
4.05469e-05
2.31779e-07
4.04879e-05
2.24761e-07
4.04299e-05
2.17946e-07
4.0373e-05
2.11326e-07
4.03172e-05
2.04895e-07
4.02625e-05
1.98654e-07
4.02089e-05
1.92613e-07
4.01565e-05
1.86792e-07
4.01052e-05
1.81238e-07
4.0055e-05
1.76014e-07
4.00059e-05
1.71309e-07
3.9958e-05
1.67168e-07
3.99117e-05
1.64548e-07
3.98666e-05
1.62257e-07
3.98282e-05
1.65502e-07
3.9789e-05
1.6345e-07
1.75696e-07
3.97768e-05
4.2466e-05
-3.17896e-08
4.2491e-05
1.56783e-07
4.25213e-05
2.79841e-07
4.25615e-05
3.66447e-07
4.26049e-05
4.32164e-07
4.26443e-05
4.69192e-07
4.26778e-05
4.86873e-07
4.27048e-05
4.94302e-07
4.2725e-05
4.95032e-07
4.27386e-05
4.90986e-07
4.27461e-05
4.83827e-07
4.2748e-05
4.7473e-07
4.2745e-05
4.64425e-07
4.27376e-05
4.534e-07
4.27264e-05
4.42001e-07
4.27118e-05
4.30474e-07
4.26945e-05
4.1898e-07
4.26747e-05
4.07632e-07
4.26528e-05
3.96502e-07
4.26291e-05
3.85636e-07
4.2604e-05
3.75059e-07
4.25776e-05
3.64784e-07
4.25502e-05
3.54814e-07
4.25219e-05
3.45144e-07
4.24929e-05
3.35765e-07
4.24634e-05
3.26667e-07
4.24335e-05
3.17836e-07
4.24032e-05
3.09257e-07
4.23727e-05
3.00916e-07
4.2342e-05
2.928e-07
4.23113e-05
2.84893e-07
4.22806e-05
2.77183e-07
4.225e-05
2.69659e-07
4.22195e-05
2.62308e-07
4.21891e-05
2.55122e-07
4.21589e-05
2.48093e-07
4.21291e-05
2.41216e-07
4.20995e-05
2.34489e-07
4.20702e-05
2.27917e-07
4.20413e-05
2.21512e-07
4.20128e-05
2.15295e-07
4.19847e-05
2.09312e-07
4.19571e-05
2.0362e-07
4.19301e-05
1.98365e-07
4.19036e-05
1.93596e-07
4.18783e-05
1.89848e-07
4.18541e-05
1.86479e-07
4.1834e-05
1.85663e-07
4.18153e-05
1.82103e-07
1.82304e-07
4.18087e-05
4.32943e-05
-3.18668e-09
4.33044e-05
1.46685e-07
4.33245e-05
2.59749e-07
4.33533e-05
3.37656e-07
4.33871e-05
3.98405e-07
4.342e-05
4.3625e-07
4.345e-05
4.56866e-07
4.34766e-05
4.67686e-07
4.34997e-05
4.71994e-07
4.35191e-05
4.71565e-07
4.3535e-05
4.67911e-07
4.35476e-05
4.62123e-07
4.35572e-05
4.5489e-07
4.35639e-05
4.46682e-07
4.3568e-05
4.37842e-07
4.35699e-05
4.28615e-07
4.35697e-05
4.19176e-07
4.35677e-05
4.09651e-07
4.3564e-05
4.00129e-07
4.3559e-05
3.90674e-07
4.35527e-05
3.81331e-07
4.35454e-05
3.72128e-07
4.35371e-05
3.63085e-07
4.35281e-05
3.54213e-07
4.35183e-05
3.45518e-07
4.3508e-05
3.36999e-07
4.34971e-05
3.28656e-07
4.34859e-05
3.20483e-07
4.34744e-05
3.12475e-07
4.34625e-05
3.04625e-07
4.34505e-05
2.96926e-07
4.34383e-05
2.8937e-07
4.3426e-05
2.81951e-07
4.34137e-05
2.74661e-07
4.34013e-05
2.67494e-07
4.33889e-05
2.60446e-07
4.33766e-05
2.53515e-07
4.33644e-05
2.46701e-07
4.33523e-05
2.40008e-07
4.33404e-05
2.33448e-07
4.33287e-05
2.27042e-07
4.33171e-05
2.20826e-07
4.33059e-05
2.14843e-07
4.32951e-05
2.0919e-07
4.32848e-05
2.03894e-07
4.32754e-05
1.99208e-07
4.32672e-05
1.9474e-07
4.32616e-05
1.912e-07
4.32578e-05
1.85939e-07
1.80719e-07
4.32594e-05
4.412e-05
1.40284e-08
4.41281e-05
1.38601e-07
4.41462e-05
2.41611e-07
4.41699e-05
3.13978e-07
4.41975e-05
3.70735e-07
4.42254e-05
4.08418e-07
4.42516e-05
4.3061e-07
4.42759e-05
4.43381e-07
4.42981e-05
4.498e-07
4.43181e-05
4.51561e-07
4.4336e-05
4.50073e-07
4.43517e-05
4.46364e-07
4.43655e-05
4.41101e-07
4.43775e-05
4.3474e-07
4.43877e-05
4.27616e-07
4.43963e-05
4.19971e-07
4.44035e-05
4.11978e-07
4.44094e-05
4.03768e-07
4.44141e-05
3.95433e-07
4.44177e-05
3.87043e-07
4.44204e-05
3.78651e-07
4.44223e-05
3.70293e-07
4.44233e-05
3.61996e-07
4.44238e-05
3.53779e-07
4.44236e-05
3.45655e-07
4.4423e-05
3.37631e-07
4.44219e-05
3.29712e-07
4.44205e-05
3.219e-07
4.44188e-05
3.14195e-07
4.44168e-05
3.06594e-07
4.44147e-05
2.99095e-07
4.44123e-05
2.91696e-07
4.44099e-05
2.84391e-07
4.44074e-05
2.77177e-07
4.44048e-05
2.70052e-07
4.44023e-05
2.63012e-07
4.43997e-05
2.56056e-07
4.43972e-05
2.49185e-07
4.43948e-05
2.42405e-07
4.43926e-05
2.35723e-07
4.43905e-05
2.29156e-07
4.43886e-05
2.22727e-07
4.43869e-05
2.16465e-07
4.43857e-05
2.10419e-07
4.4385e-05
2.0459e-07
4.43852e-05
1.99055e-07
4.43864e-05
1.93529e-07
4.43895e-05
1.88105e-07
4.43941e-05
1.81345e-07
1.73421e-07
4.44014e-05
4.49565e-05
2.4283e-08
4.49643e-05
1.30753e-07
4.49812e-05
2.24742e-07
4.50021e-05
2.93046e-07
4.50263e-05
3.4657e-07
4.5051e-05
3.83738e-07
4.50747e-05
4.06922e-07
4.5097e-05
4.21039e-07
4.51179e-05
4.2892e-07
4.51373e-05
4.32197e-07
4.51551e-05
4.32198e-07
4.51716e-05
4.29912e-07
4.51867e-05
4.25994e-07
4.52005e-05
4.20901e-07
4.52132e-05
4.14963e-07
4.52247e-05
4.08422e-07
4.52353e-05
4.01454e-07
4.52448e-05
3.94188e-07
4.52535e-05
3.86719e-07
4.52615e-05
3.7912e-07
4.52687e-05
3.71445e-07
4.52752e-05
3.63735e-07
4.52812e-05
3.56019e-07
4.52867e-05
3.4832e-07
4.52917e-05
3.40654e-07
4.52963e-05
3.33034e-07
4.53005e-05
3.25466e-07
4.53045e-05
3.17956e-07
4.53081e-05
3.10508e-07
4.53116e-05
3.03122e-07
4.53149e-05
2.95798e-07
4.53181e-05
2.88536e-07
4.53211e-05
2.81334e-07
4.53241e-05
2.7419e-07
4.53271e-05
2.67103e-07
4.533e-05
2.6007e-07
4.5333e-05
2.53092e-07
4.5336e-05
2.46169e-07
4.53391e-05
2.39304e-07
4.53423e-05
2.32502e-07
4.53457e-05
2.25773e-07
4.53493e-05
2.19129e-07
4.53532e-05
2.1258e-07
4.53575e-05
2.06142e-07
4.53623e-05
1.99787e-07
4.53678e-05
1.93496e-07
4.53743e-05
1.87036e-07
4.53821e-05
1.80267e-07
4.53911e-05
1.72345e-07
1.63012e-07
4.54016e-05
4.58064e-05
2.97989e-08
4.58138e-05
1.23286e-07
4.58295e-05
2.09075e-07
4.58488e-05
2.73735e-07
4.58709e-05
3.24511e-07
4.58936e-05
3.61034e-07
4.59156e-05
3.8492e-07
4.59365e-05
4.00091e-07
4.59563e-05
4.09125e-07
4.59749e-05
4.13585e-07
4.59924e-05
4.14733e-07
4.60088e-05
4.13521e-07
4.60242e-05
4.10605e-07
4.60386e-05
4.06443e-07
4.60522e-05
4.01371e-07
4.6065e-05
3.95634e-07
4.60771e-05
3.8941e-07
4.60884e-05
3.82833e-07
4.60991e-05
3.76e-07
4.61093e-05
3.68986e-07
4.61189e-05
3.61847e-07
4.6128e-05
3.54625e-07
4.61367e-05
3.47352e-07
4.61449e-05
3.40052e-07
4.61528e-05
3.32743e-07
4.61604e-05
3.2544e-07
4.61677e-05
3.18151e-07
4.61748e-05
3.10884e-07
4.61817e-05
3.03643e-07
4.61884e-05
2.96432e-07
4.61949e-05
2.89251e-07
4.62013e-05
2.82102e-07
4.62077e-05
2.74984e-07
4.6214e-05
2.67895e-07
4.62203e-05
2.60836e-07
4.62265e-05
2.53805e-07
4.62328e-05
2.468e-07
4.62392e-05
2.39821e-07
4.62456e-05
2.32869e-07
4.62522e-05
2.25945e-07
4.62589e-05
2.19051e-07
4.62658e-05
2.1219e-07
4.6273e-05
2.05356e-07
4.62806e-05
1.98539e-07
4.62887e-05
1.91692e-07
4.62975e-05
1.84747e-07
4.6307e-05
1.77507e-07
4.63175e-05
1.69766e-07
4.63289e-05
1.60995e-07
1.50889e-07
4.6341e-05
4.66704e-05
3.23115e-08
4.66776e-05
1.16135e-07
4.66921e-05
1.94513e-07
4.67102e-05
2.55665e-07
4.67307e-05
3.03976e-07
4.6752e-05
3.39727e-07
4.67729e-05
3.64069e-07
4.67929e-05
3.80091e-07
4.68119e-05
3.90096e-07
4.68299e-05
3.95559e-07
4.6847e-05
3.97671e-07
4.68632e-05
3.97352e-07
4.68785e-05
3.95252e-07
4.68931e-05
3.91834e-07
4.69071e-05
3.87441e-07
4.69204e-05
3.82324e-07
4.69331e-05
3.76669e-07
4.69453e-05
3.70614e-07
4.69571e-05
3.6426e-07
4.69684e-05
3.57685e-07
4.69793e-05
3.50948e-07
4.69898e-05
3.44093e-07
4.7e-05
3.37154e-07
4.70099e-05
3.30156e-07
4.70195e-05
3.23119e-07
4.70289e-05
3.16057e-07
4.70381e-05
3.08982e-07
4.70471e-05
3.01901e-07
4.70559e-05
2.9482e-07
4.70646e-05
2.87742e-07
4.70732e-05
2.8067e-07
4.70817e-05
2.73604e-07
4.70901e-05
2.66546e-07
4.70985e-05
2.59495e-07
4.71069e-05
2.52448e-07
4.71153e-05
2.45405e-07
4.71237e-05
2.38364e-07
4.71322e-05
2.31322e-07
4.71408e-05
2.24278e-07
4.71495e-05
2.17228e-07
4.71584e-05
2.10168e-07
4.71675e-05
2.03091e-07
4.71769e-05
1.95981e-07
4.71866e-05
1.8881e-07
4.71968e-05
1.8152e-07
4.72075e-05
1.74024e-07
4.72189e-05
1.66153e-07
4.72309e-05
1.57709e-07
4.72436e-05
1.48344e-07
1.37808e-07
4.72567e-05
4.75495e-05
3.29725e-08
4.75564e-05
1.09233e-07
4.75699e-05
1.81008e-07
4.75868e-05
2.38723e-07
4.76061e-05
2.84718e-07
4.76263e-05
3.19555e-07
4.76462e-05
3.44106e-07
4.76655e-05
3.60785e-07
4.7684e-05
3.71606e-07
4.77016e-05
3.77942e-07
4.77184e-05
3.80905e-07
4.77344e-05
3.81373e-07
4.77497e-05
3.79985e-07
4.77643e-05
3.77207e-07
4.77783e-05
3.73388e-07
4.77919e-05
3.68787e-07
4.78049e-05
3.63595e-07
4.78176e-05
3.57957e-07
4.78299e-05
3.51981e-07
4.78418e-05
3.45749e-07
4.78534e-05
3.39322e-07
4.78648e-05
3.32748e-07
4.78759e-05
3.26062e-07
4.78867e-05
3.19292e-07
4.78974e-05
3.12458e-07
4.79079e-05
3.05577e-07
4.79182e-05
2.9866e-07
4.79284e-05
2.91716e-07
4.79385e-05
2.8475e-07
4.79484e-05
2.77767e-07
4.79583e-05
2.7077e-07
4.79682e-05
2.63761e-07
4.7978e-05
2.56738e-07
4.79878e-05
2.49702e-07
4.79976e-05
2.4265e-07
4.80074e-05
2.35581e-07
4.80173e-05
2.28492e-07
4.80272e-05
2.21377e-07
4.80373e-05
2.14233e-07
4.80474e-05
2.07053e-07
4.80578e-05
1.99826e-07
4.80683e-05
1.92539e-07
4.80791e-05
1.85167e-07
4.80903e-05
1.77674e-07
4.81018e-05
1.69996e-07
4.81138e-05
1.62043e-07
4.81263e-05
1.53675e-07
4.81392e-05
1.44723e-07
4.81526e-05
1.34954e-07
1.24189e-07
4.81663e-05
4.84443e-05
3.25125e-08
4.8451e-05
1.0257e-07
4.84635e-05
1.68498e-07
4.84794e-05
2.22851e-07
4.84975e-05
2.66616e-07
4.85166e-05
3.00407e-07
4.85358e-05
3.2493e-07
4.85545e-05
3.42064e-07
4.85726e-05
3.53545e-07
4.85899e-05
3.60631e-07
4.86064e-05
3.64347e-07
4.86223e-05
3.65523e-07
4.86375e-05
3.64779e-07
4.86521e-05
3.62579e-07
4.86662e-05
3.59273e-07
4.86799e-05
3.55126e-07
4.86931e-05
3.50336e-07
4.8706e-05
3.45055e-07
4.87186e-05
3.39395e-07
4.87309e-05
3.33444e-07
4.8743e-05
3.27267e-07
4.87548e-05
3.20916e-07
4.87665e-05
3.14428e-07
4.87779e-05
3.07833e-07
4.87892e-05
3.01153e-07
4.88004e-05
2.94406e-07
4.88115e-05
2.87604e-07
4.88224e-05
2.80757e-07
4.88333e-05
2.73871e-07
4.88441e-05
2.66951e-07
4.88549e-05
2.6e-07
4.88656e-05
2.5302e-07
4.88763e-05
2.46009e-07
4.88871e-05
2.38968e-07
4.88978e-05
2.31895e-07
4.89086e-05
2.24785e-07
4.89195e-05
2.17634e-07
4.89304e-05
2.10438e-07
4.89415e-05
2.03187e-07
4.89527e-05
1.95873e-07
4.8964e-05
1.88481e-07
4.89755e-05
1.80992e-07
4.89873e-05
1.73377e-07
4.89994e-05
1.65595e-07
4.90118e-05
1.57584e-07
4.90246e-05
1.4926e-07
4.90378e-05
1.40507e-07
4.90513e-05
1.31194e-07
4.90651e-05
1.21159e-07
1.10287e-07
4.9079e-05
4.93555e-05
3.1399e-08
4.93619e-05
9.61577e-08
4.93735e-05
1.56904e-07
4.93883e-05
2.07996e-07
4.94054e-05
2.49589e-07
4.94235e-05
2.82229e-07
4.9442e-05
3.06512e-07
4.94601e-05
3.23905e-07
4.94778e-05
3.35885e-07
4.94948e-05
3.4359e-07
4.95112e-05
3.4796e-07
4.9527e-05
3.49767e-07
4.95421e-05
3.49609e-07
4.95568e-05
3.47937e-07
4.95709e-05
3.45102e-07
4.95847e-05
3.41371e-07
4.95981e-05
3.36946e-07
4.96112e-05
3.31985e-07
4.96239e-05
3.26605e-07
4.96365e-05
3.20898e-07
4.96488e-05
3.14935e-07
4.9661e-05
3.0877e-07
4.96729e-05
3.02444e-07
4.96848e-05
2.95989e-07
4.96965e-05
2.89429e-07
4.97081e-05
2.82784e-07
4.97197e-05
2.76066e-07
4.97311e-05
2.69287e-07
4.97426e-05
2.62454e-07
4.97539e-05
2.55572e-07
4.97653e-05
2.48644e-07
4.97766e-05
2.41671e-07
4.9788e-05
2.34654e-07
4.97994e-05
2.27592e-07
4.98108e-05
2.20481e-07
4.98223e-05
2.13317e-07
4.98338e-05
2.06096e-07
4.98454e-05
1.98809e-07
4.98572e-05
1.91447e-07
4.9869e-05
1.83998e-07
4.98811e-05
1.76445e-07
4.98933e-05
1.68766e-07
4.99058e-05
1.6093e-07
4.99185e-05
1.52894e-07
4.99314e-05
1.44602e-07
4.99447e-05
1.3598e-07
4.99583e-05
1.26937e-07
4.99721e-05
1.17371e-07
4.99861e-05
1.07174e-07
9.62719e-08
5.00001e-05
5.02834e-05
2.99283e-08
5.02896e-05
9.00101e-08
5.03003e-05
1.46139e-07
5.03143e-05
1.94093e-07
5.03303e-05
2.33564e-07
5.03475e-05
2.64977e-07
5.03652e-05
2.88841e-07
5.03828e-05
3.0631e-07
5.04e-05
3.18633e-07
5.04168e-05
3.26826e-07
5.0433e-05
3.31745e-07
5.04487e-05
3.34104e-07
5.04638e-05
3.34469e-07
5.04785e-05
3.33279e-07
5.04927e-05
3.30878e-07
5.05065e-05
3.27531e-07
5.052e-05
3.23445e-07
5.05333e-05
3.18779e-07
5.05462e-05
3.13656e-07
5.05589e-05
3.08172e-07
5.05715e-05
3.02401e-07
5.05838e-05
2.964e-07
5.05961e-05
2.90214e-07
5.06082e-05
2.83877e-07
5.06202e-05
2.77416e-07
5.06321e-05
2.70851e-07
5.0644e-05
2.64198e-07
5.06558e-05
2.57468e-07
5.06676e-05
2.50668e-07
5.06794e-05
2.43806e-07
5.06911e-05
2.36884e-07
5.07029e-05
2.29905e-07
5.07147e-05
2.22868e-07
5.07265e-05
2.15771e-07
5.07384e-05
2.08612e-07
5.07503e-05
2.01386e-07
5.07623e-05
1.94086e-07
5.07744e-05
1.86705e-07
5.07866e-05
1.7923e-07
5.0799e-05
1.71649e-07
5.08115e-05
1.63942e-07
5.08242e-05
1.56087e-07
5.0837e-05
1.48053e-07
5.08501e-05
1.39799e-07
5.08635e-05
1.31276e-07
5.0877e-05
1.22421e-07
5.08908e-05
1.13163e-07
5.09047e-05
1.03427e-07
5.09188e-05
9.31413e-08
8.22636e-08
5.09328e-05
5.12287e-05
2.82849e-08
5.12345e-05
8.41393e-08
5.12445e-05
1.36121e-07
5.12576e-05
1.81076e-07
5.12727e-05
2.18473e-07
5.1289e-05
2.48603e-07
5.1306e-05
2.71904e-07
5.1323e-05
2.8929e-07
5.13398e-05
3.01808e-07
5.13563e-05
3.10362e-07
5.13723e-05
3.15724e-07
5.13878e-05
3.18551e-07
5.14029e-05
3.19375e-07
5.14176e-05
3.18617e-07
5.14319e-05
3.16611e-07
5.14458e-05
3.13619e-07
5.14594e-05
3.09847e-07
5.14727e-05
3.05456e-07
5.14858e-05
3.00573e-07
5.14987e-05
2.95296e-07
5.15114e-05
2.89702e-07
5.15239e-05
2.83852e-07
5.15363e-05
2.77793e-07
5.15486e-05
2.71561e-07
5.15609e-05
2.65187e-07
5.1573e-05
2.5869e-07
5.15851e-05
2.52089e-07
5.15972e-05
2.45395e-07
5.16093e-05
2.38619e-07
5.16213e-05
2.31766e-07
5.16334e-05
2.2484e-07
5.16454e-05
2.17844e-07
5.16575e-05
2.10778e-07
5.16696e-05
2.0364e-07
5.16818e-05
1.96427e-07
5.16941e-05
1.89134e-07
5.17064e-05
1.81753e-07
5.17188e-05
1.74276e-07
5.17314e-05
1.66691e-07
5.1744e-05
1.58984e-07
5.17568e-05
1.51135e-07
5.17698e-05
1.43122e-07
5.17829e-05
1.34915e-07
5.17963e-05
1.26478e-07
5.18098e-05
1.17768e-07
5.18235e-05
1.08735e-07
5.18373e-05
9.93242e-08
5.18512e-05
8.9483e-08
5.18652e-05
7.91646e-08
6.83475e-08
5.18791e-05
5.21915e-05
2.65808e-08
5.21971e-05
7.85515e-08
5.22065e-05
1.26774e-07
5.22187e-05
1.68876e-07
5.22329e-05
2.04246e-07
5.22484e-05
2.33058e-07
5.22647e-05
2.5568e-07
5.22811e-05
2.72844e-07
5.22975e-05
2.85425e-07
5.23136e-05
2.9422e-07
5.23294e-05
2.99924e-07
5.23448e-05
3.03135e-07
5.23599e-05
3.04351e-07
5.23745e-05
3.03972e-07
5.23888e-05
3.0232e-07
5.24028e-05
2.99651e-07
5.24165e-05
2.96168e-07
5.24299e-05
2.92033e-07
5.24431e-05
2.87374e-07
5.24561e-05
2.82291e-07
5.24689e-05
2.76864e-07
5.24816e-05
2.71155e-07
5.24942e-05
2.65214e-07
5.25067e-05
2.59081e-07
5.25191e-05
2.52785e-07
5.25314e-05
2.4635e-07
5.25437e-05
2.39794e-07
5.2556e-05
2.33131e-07
5.25682e-05
2.26372e-07
5.25805e-05
2.19523e-07
5.25927e-05
2.12588e-07
5.2605e-05
2.05572e-07
5.26173e-05
1.98473e-07
5.26296e-05
1.9129e-07
5.26421e-05
1.84021e-07
5.26545e-05
1.7666e-07
5.26671e-05
1.692e-07
5.26797e-05
1.61632e-07
5.26925e-05
1.53943e-07
5.27053e-05
1.46119e-07
5.27183e-05
1.38142e-07
5.27315e-05
1.29991e-07
5.27447e-05
1.21637e-07
5.27582e-05
1.13051e-07
5.27717e-05
1.04196e-07
5.27854e-05
9.50326e-08
5.27992e-05
8.55213e-08
5.28131e-05
7.56254e-08
5.28269e-05
6.5316e-08
5.4586e-08
5.28407e-05
5.31724e-05
2.48824e-08
5.31777e-05
7.32471e-08
5.31865e-05
1.18032e-07
5.31979e-05
1.57426e-07
5.32114e-05
1.90818e-07
5.32261e-05
2.1829e-07
5.32417e-05
2.40142e-07
5.32575e-05
2.56965e-07
5.32735e-05
2.69493e-07
5.32893e-05
2.78419e-07
5.33048e-05
2.84367e-07
5.33201e-05
2.87881e-07
5.3335e-05
2.89423e-07
5.33496e-05
2.89369e-07
5.33639e-05
2.88028e-07
5.33779e-05
2.85648e-07
5.33917e-05
2.82428e-07
5.34052e-05
2.78529e-07
5.34185e-05
2.74077e-07
5.34316e-05
2.69176e-07
5.34445e-05
2.63905e-07
5.34574e-05
2.5833e-07
5.34701e-05
2.52502e-07
5.34827e-05
2.46461e-07
5.34952e-05
2.40239e-07
5.35077e-05
2.33862e-07
5.35202e-05
2.27349e-07
5.35326e-05
2.20714e-07
5.3545e-05
2.1397e-07
5.35574e-05
2.07123e-07
5.35698e-05
2.00179e-07
5.35822e-05
1.93141e-07
5.35947e-05
1.8601e-07
5.36072e-05
1.78785e-07
5.36198e-05
1.71462e-07
5.36324e-05
1.64037e-07
5.36451e-05
1.56502e-07
5.36579e-05
1.48849e-07
5.36707e-05
1.41066e-07
5.36837e-05
1.33139e-07
5.36968e-05
1.25052e-07
5.371e-05
1.16783e-07
5.37233e-05
1.0831e-07
5.37368e-05
9.96069e-08
5.37503e-05
9.06446e-08
5.3764e-05
8.13934e-08
5.37777e-05
7.18245e-08
5.37914e-05
6.19144e-08
5.3805e-05
5.16467e-08
4.10238e-08
5.38186e-05
5.41717e-05
2.32271e-08
5.41768e-05
6.8221e-08
5.4185e-05
1.09836e-07
5.41957e-05
1.46661e-07
5.42084e-05
1.78127e-07
5.42225e-05
2.04245e-07
5.42373e-05
2.25257e-07
5.42527e-05
2.41641e-07
5.42681e-05
2.5401e-07
5.42836e-05
2.62969e-07
5.42989e-05
2.69071e-07
5.4314e-05
2.72811e-07
5.43288e-05
2.74613e-07
5.43433e-05
2.74831e-07
5.43576e-05
2.73758e-07
5.43716e-05
2.71632e-07
5.43854e-05
2.68647e-07
5.43989e-05
2.64961e-07
5.44123e-05
2.60701e-07
5.44255e-05
2.55968e-07
5.44386e-05
2.50844e-07
5.44515e-05
2.45394e-07
5.44644e-05
2.39673e-07
5.44771e-05
2.3372e-07
5.44898e-05
2.2757e-07
5.45024e-05
2.21249e-07
5.45149e-05
2.14778e-07
5.45275e-05
2.08172e-07
5.454e-05
2.01442e-07
5.45525e-05
1.94599e-07
5.45651e-05
1.87648e-07
5.45776e-05
1.80591e-07
5.45902e-05
1.73431e-07
5.46028e-05
1.66167e-07
5.46155e-05
1.58796e-07
5.46282e-05
1.51314e-07
5.4641e-05
1.43713e-07
5.46539e-05
1.35986e-07
5.46668e-05
1.28121e-07
5.46798e-05
1.20106e-07
5.4693e-05
1.11927e-07
5.47062e-05
1.03564e-07
5.47195e-05
9.49988e-08
5.47329e-05
8.62101e-08
5.47464e-05
7.71753e-08
5.47599e-05
6.78727e-08
5.47734e-05
5.82828e-08
5.47869e-05
4.83915e-08
5.48004e-05
3.81917e-08
2.76914e-08
5.48137e-05
5.51898e-05
2.16344e-08
5.51946e-05
6.34634e-08
5.52023e-05
1.02134e-07
5.52124e-05
1.36521e-07
5.52244e-05
1.66113e-07
5.52378e-05
1.90873e-07
5.5252e-05
2.1099e-07
5.52668e-05
2.26853e-07
5.52819e-05
2.38973e-07
5.5297e-05
2.47874e-07
5.5312e-05
2.54048e-07
5.53269e-05
2.5794e-07
5.53415e-05
2.59941e-07
5.5356e-05
2.60378e-07
5.53702e-05
2.59529e-07
5.53842e-05
2.57622e-07
5.5398e-05
2.54845e-07
5.54116e-05
2.5135e-07
5.54251e-05
2.47263e-07
5.54384e-05
2.42684e-07
5.54515e-05
2.37696e-07
5.54645e-05
2.32365e-07
5.54775e-05
2.26744e-07
5.54903e-05
2.20877e-07
5.55031e-05
2.14796e-07
5.55158e-05
2.08531e-07
5.55285e-05
2.02101e-07
5.55411e-05
1.95524e-07
5.55538e-05
1.88812e-07
5.55664e-05
1.81975e-07
5.5579e-05
1.7502e-07
5.55916e-05
1.6795e-07
5.56043e-05
1.60766e-07
5.5617e-05
1.5347e-07
5.56297e-05
1.46059e-07
5.56425e-05
1.38528e-07
5.56554e-05
1.30872e-07
5.56683e-05
1.23083e-07
5.56812e-05
1.15151e-07
5.56943e-05
1.07067e-07
5.57074e-05
9.88149e-08
5.57206e-05
9.03817e-08
5.57338e-05
8.1751e-08
5.57471e-05
7.29061e-08
5.57605e-05
6.38305e-08
5.57738e-05
5.45089e-08
5.57872e-05
4.49292e-08
5.58005e-05
3.50845e-08
5.58137e-05
2.4974e-08
1.46093e-08
5.58268e-05
5.6227e-05
2.01132e-08
5.62315e-05
5.89616e-08
5.62387e-05
9.48807e-08
5.62483e-05
1.26951e-07
5.62597e-05
1.54722e-07
5.62724e-05
1.78126e-07
5.62861e-05
1.97306e-07
5.63004e-05
2.12578e-07
5.6315e-05
2.2437e-07
5.63298e-05
2.33133e-07
5.63445e-05
2.39303e-07
5.63592e-05
2.4328e-07
5.63737e-05
2.45419e-07
5.6388e-05
2.46026e-07
5.64022e-05
2.45359e-07
5.64162e-05
2.43637e-07
5.643e-05
2.41038e-07
5.64436e-05
2.37711e-07
5.64571e-05
2.33779e-07
5.64705e-05
2.29341e-07
5.64837e-05
2.24478e-07
5.64968e-05
2.19257e-07
5.65098e-05
2.13732e-07
5.65227e-05
2.07945e-07
5.65356e-05
2.01933e-07
5.65484e-05
1.95722e-07
5.65612e-05
1.89335e-07
5.65739e-05
1.82789e-07
5.65866e-05
1.76098e-07
5.65993e-05
1.69271e-07
5.6612e-05
1.62317e-07
5.66247e-05
1.55239e-07
5.66375e-05
1.48039e-07
5.66502e-05
1.40719e-07
5.6663e-05
1.33276e-07
5.66758e-05
1.25708e-07
5.66887e-05
1.18009e-07
5.67016e-05
1.10173e-07
5.67145e-05
1.02191e-07
5.67276e-05
9.40545e-08
5.67406e-05
8.57519e-08
5.67537e-05
7.72716e-08
5.67669e-05
6.8601e-08
5.67801e-05
5.97277e-08
5.67933e-05
5.064e-08
5.68064e-05
4.13282e-08
5.68196e-05
3.17858e-08
5.68326e-05
2.20113e-08
5.68456e-05
1.20081e-08
1.78992e-09
5.68584e-05
5.72837e-05
1.86657e-08
5.72879e-05
5.47006e-08
5.72948e-05
8.80341e-08
5.73038e-05
1.17899e-07
5.73146e-05
1.43904e-07
5.73268e-05
1.65958e-07
5.734e-05
1.84169e-07
5.73537e-05
1.98794e-07
5.73679e-05
2.10188e-07
5.73823e-05
2.18742e-07
5.73968e-05
2.2484e-07
5.74112e-05
2.28838e-07
5.74256e-05
2.31059e-07
5.74398e-05
2.31787e-07
5.74539e-05
2.31262e-07
5.74679e-05
2.29689e-07
5.74817e-05
2.27241e-07
5.74953e-05
2.2406e-07
5.75088e-05
2.20264e-07
5.75222e-05
2.15952e-07
5.75355e-05
2.11204e-07
5.75487e-05
2.06085e-07
5.75617e-05
2.00649e-07
5.75747e-05
1.9494e-07
5.75877e-05
1.88993e-07
5.76006e-05
1.82836e-07
5.76134e-05
1.76493e-07
5.76262e-05
1.69981e-07
5.7639e-05
1.63314e-07
5.76518e-05
1.56503e-07
5.76645e-05
1.49556e-07
5.76773e-05
1.42477e-07
5.76901e-05
1.35269e-07
5.77028e-05
1.27935e-07
5.77157e-05
1.20472e-07
5.77285e-05
1.12878e-07
5.77413e-05
1.0515e-07
5.77542e-05
9.72813e-08
5.77672e-05
8.92664e-08
5.77801e-05
8.10971e-08
5.77931e-05
7.27647e-08
5.78061e-05
6.42602e-08
5.78191e-05
5.55744e-08
5.78322e-05
4.66984e-08
5.78452e-05
3.76248e-08
5.78582e-05
2.83484e-08
5.78711e-05
1.8867e-08
5.78839e-05
9.1829e-09
5.78966e-05
-6.97565e-10
-1.07597e-08
5.79092e-05
5.83602e-05
1.72908e-08
5.83643e-05
5.06645e-08
5.83707e-05
8.15583e-08
5.83793e-05
1.09321e-07
5.83896e-05
1.3361e-07
5.84012e-05
1.54327e-07
5.84139e-05
1.71545e-07
5.84272e-05
1.85475e-07
5.84409e-05
1.96413e-07
5.8455e-05
2.04695e-07
5.84692e-05
2.10656e-07
5.84834e-05
2.14617e-07
5.84976e-05
2.16869e-07
5.85117e-05
2.17671e-07
5.85257e-05
2.17248e-07
5.85396e-05
2.15792e-07
5.85534e-05
2.13466e-07
5.8567e-05
2.10408e-07
5.85806e-05
2.06731e-07
5.8594e-05
2.02531e-07
5.86073e-05
1.97886e-07
5.86205e-05
1.92861e-07
5.86337e-05
1.87509e-07
5.86467e-05
1.81873e-07
5.86598e-05
1.7599e-07
5.86727e-05
1.69888e-07
5.86856e-05
1.6359e-07
5.86985e-05
1.57115e-07
5.87113e-05
1.50477e-07
5.87241e-05
1.43686e-07
5.87369e-05
1.36752e-07
5.87497e-05
1.2968e-07
5.87625e-05
1.22474e-07
5.87753e-05
1.15135e-07
5.87881e-05
1.07663e-07
5.8801e-05
1.00057e-07
5.88138e-05
9.23136e-08
5.88266e-05
8.44292e-08
5.88395e-05
7.63986e-08
5.88524e-05
6.82158e-08
5.88653e-05
5.98745e-08
5.88782e-05
5.13681e-08
5.88911e-05
4.26902e-08
5.89039e-05
3.38355e-08
5.89167e-05
2.47999e-08
5.89295e-05
1.55818e-08
5.89422e-05
6.18209e-09
5.89548e-05
-3.39406e-09
5.89672e-05
-1.31383e-08
-2.30357e-08
5.89795e-05
5.9457e-05
1.59851e-08
5.94608e-05
4.68369e-08
5.9467e-05
7.542e-08
5.94751e-05
1.01174e-07
5.94849e-05
1.23798e-07
5.94961e-05
1.43191e-07
5.95082e-05
1.59401e-07
5.95211e-05
1.72597e-07
5.95345e-05
1.83028e-07
5.95482e-05
1.90981e-07
5.95621e-05
1.96749e-07
5.95761e-05
2.00619e-07
5.95901e-05
2.02852e-07
5.96041e-05
2.03685e-07
5.9618e-05
2.03326e-07
5.96318e-05
2.01955e-07
5.96456e-05
1.99725e-07
5.96592e-05
1.96768e-07
5.96728e-05
1.93191e-07
5.96862e-05
1.89089e-07
5.96996e-05
1.84536e-07
5.97128e-05
1.79596e-07
5.9726e-05
1.74322e-07
5.97391e-05
1.68757e-07
5.97522e-05
1.62936e-07
5.97652e-05
1.56889e-07
5.97781e-05
1.50638e-07
5.97911e-05
1.44203e-07
5.98039e-05
1.37597e-07
5.98168e-05
1.30833e-07
5.98296e-05
1.2392e-07
5.98424e-05
1.16863e-07
5.98552e-05
1.09668e-07
5.9868e-05
1.02335e-07
5.98808e-05
9.48666e-08
5.98936e-05
8.72616e-08
5.99064e-05
7.95184e-08
5.99192e-05
7.16343e-08
5.9932e-05
6.36057e-08
5.99448e-05
5.54285e-08
5.99576e-05
4.70984e-08
5.99703e-05
3.86112e-08
5.99831e-05
2.99633e-08
5.99957e-05
2.1152e-08
6.00084e-05
1.21761e-08
6.00209e-05
3.03665e-09
6.00334e-05
-6.26289e-09
6.00457e-05
-1.57155e-08
6.00579e-05
-2.53116e-08
-3.50361e-08
6.00699e-05
6.05744e-05
1.47442e-08
6.0578e-05
4.32016e-08
6.05839e-05
6.95894e-08
6.05916e-05
9.34196e-08
6.0601e-05
1.14428e-07
6.06117e-05
1.32513e-07
6.06234e-05
1.47703e-07
6.06358e-05
1.60135e-07
6.06488e-05
1.70015e-07
6.06622e-05
1.77589e-07
6.06759e-05
1.83115e-07
6.06896e-05
1.86843e-07
6.07035e-05
1.89011e-07
6.07173e-05
1.89834e-07
6.07312e-05
1.89504e-07
6.07449e-05
1.88186e-07
6.07586e-05
1.86026e-07
6.07722e-05
1.83148e-07
6.07858e-05
1.79654e-07
6.07992e-05
1.75635e-07
6.08126e-05
1.71163e-07
6.08259e-05
1.66301e-07
6.08391e-05
1.61099e-07
6.08523e-05
1.55601e-07
6.08654e-05
1.49842e-07
6.08784e-05
1.4385e-07
6.08914e-05
1.37648e-07
6.09044e-05
1.31256e-07
6.09173e-05
1.24688e-07
6.09301e-05
1.17958e-07
6.0943e-05
1.11072e-07
6.09558e-05
1.0404e-07
6.09686e-05
9.68647e-08
6.09814e-05
8.95501e-08
6.09942e-05
8.20975e-08
6.10069e-05
7.45076e-08
6.10197e-05
6.67795e-08
6.10324e-05
5.8912e-08
6.10451e-05
5.09029e-08
6.10578e-05
4.27499e-08
6.10704e-05
3.44507e-08
6.1083e-05
2.60031e-08
6.10956e-05
1.74057e-08
6.11081e-05
8.65824e-09
6.11205e-05
-2.38238e-10
6.11328e-05
-9.28062e-09
6.1145e-05
-1.84635e-08
6.11571e-05
-2.77786e-08
6.1169e-05
-3.72155e-08
-4.67595e-08
6.11807e-05
6.17128e-05
1.35635e-08
6.17163e-05
3.9743e-08
6.17218e-05
6.40391e-08
6.17292e-05
8.60237e-08
6.17382e-05
1.05463e-07
6.17484e-05
1.22258e-07
6.17597e-05
1.36422e-07
6.17718e-05
1.48064e-07
6.17844e-05
1.57357e-07
6.17975e-05
1.64509e-07
6.18109e-05
1.69745e-07
6.18245e-05
1.73288e-07
6.18381e-05
1.75349e-07
6.18518e-05
1.76123e-07
6.18655e-05
1.75786e-07
6.18792e-05
1.74493e-07
6.18929e-05
1.72378e-07
6.19065e-05
1.69557e-07
6.192e-05
1.66129e-07
6.19335e-05
1.62179e-07
6.19468e-05
1.57778e-07
6.19602e-05
1.52985e-07
6.19734e-05
1.47851e-07
6.19866e-05
1.42417e-07
6.19997e-05
1.36717e-07
6.20128e-05
1.30781e-07
6.20258e-05
1.24631e-07
6.20388e-05
1.18286e-07
6.20517e-05
1.11762e-07
6.20646e-05
1.0507e-07
6.20774e-05
9.82214e-08
6.20903e-05
9.12223e-08
6.2103e-05
8.40782e-08
6.21158e-05
7.67931e-08
6.21285e-05
6.93694e-08
6.21412e-05
6.18084e-08
6.21539e-05
5.41107e-08
6.21665e-05
4.6276e-08
6.21791e-05
3.83038e-08
6.21917e-05
3.01932e-08
6.22042e-05
2.19436e-08
6.22166e-05
1.35549e-08
6.2229e-05
5.02731e-09
6.22413e-05
-3.63745e-09
6.22535e-05
-1.24365e-08
6.22656e-05
-2.1365e-08
6.22776e-05
-3.04162e-08
6.22894e-05
-3.9581e-08
6.2301e-05
-4.88485e-08
-5.82047e-08
6.23124e-05
6.28726e-05
1.24381e-08
6.28759e-05
3.64462e-08
6.28812e-05
5.87441e-08
6.28883e-05
7.89544e-08
6.28969e-05
9.6869e-08
6.29067e-05
1.12393e-07
6.29176e-05
1.25529e-07
6.29293e-05
1.36361e-07
6.29417e-05
1.45035e-07
6.29545e-05
1.51727e-07
6.29676e-05
1.56633e-07
6.29809e-05
1.59949e-07
6.29944e-05
1.61863e-07
6.3008e-05
1.62553e-07
6.30216e-05
1.62178e-07
6.30352e-05
1.60881e-07
6.30488e-05
1.58786e-07
6.30623e-05
1.56002e-07
6.30758e-05
1.52624e-07
6.30893e-05
1.4873e-07
6.31027e-05
1.44389e-07
6.3116e-05
1.39658e-07
6.31293e-05
1.34586e-07
6.31425e-05
1.29213e-07
6.31556e-05