/*--------------------------------*- C++ -*----------------------------------*\
| =========                 |                                                 |
| \\      /  F ield         | OpenFOAM: The Open Source CFD Toolbox           |
|  \\    /   O peration     | Version:  5.x                                   |
|   \\  /    A nd           | Web:      www.OpenFOAM.org                      |
|    \\/     M anipulation  |                                                 |
\*---------------------------------------------------------------------------*/
FoamFile
{
    version     2.0;
    format      ascii;
    class       volVectorField;
    location    "600";
    object      U;
}
// * * * * * * * * * * * * * * * * * * * * * * * * * * * * * * * * * * * * * //

dimensions      [0 1 -1 0 0 0 0];

internalField   nonuniform List<vector> 
15000
(
(7.31531 -0.565764 0)
(7.33707 -0.459561 0)
(7.29066 -0.259724 0)
(7.19294 -0.126691 0)
(7.08321 -0.0528737 0)
(6.97723 -0.0154629 0)
(6.87905 0.00235412 0)
(6.7901 0.0102699 0)
(6.71037 0.0133098 0)
(6.63893 0.0140226 0)
(6.57467 0.0137004 0)
(6.51661 0.0129845 0)
(6.4639 0.0121797 0)
(6.41581 0.0114208 0)
(6.37172 0.0107593 0)
(6.33111 0.0102059 0)
(6.29356 0.00975274 0)
(6.25867 0.00938456 0)
(6.22615 0.0090845 0)
(6.19573 0.00883667 0)
(6.16718 0.00862727 0)
(6.1403 0.00844494 0)
(6.11493 0.00828064 0)
(6.09094 0.00812745 0)
(6.06819 0.00798025 0)
(6.04659 0.00783535 0)
(6.02604 0.00769027 0)
(6.00645 0.00754341 0)
(5.98777 0.00739387 0)
(5.96993 0.00724126 0)
(5.95286 0.00708555 0)
(5.93654 0.00692696 0)
(5.92091 0.00676588 0)
(5.90593 0.00660279 0)
(5.89156 0.00643828 0)
(5.87779 0.00627296 0)
(5.86457 0.00610755 0)
(5.85188 0.00594286 0)
(5.8397 0.00577995 0)
(5.828 0.00562033 0)
(5.81674 0.00546636 0)
(5.8059 0.00532219 0)
(5.79544 0.00519391 0)
(5.78529 0.00510532 0)
(5.77535 0.00503788 0)
(5.76541 0.0053048 0)
(5.75489 0.00503537 0)
(5.74428 0.00847698 0)
(5.72251 0.00686838 0)
(5.72363 0.00218381 0)
(7.34184 0.165955 0)
(7.35054 0.225294 0)
(7.35394 0.174597 0)
(7.36161 0.124085 0)
(7.37234 0.0904114 0)
(7.37818 0.0687499 0)
(7.37552 0.0549673 0)
(7.36528 0.0461506 0)
(7.34946 0.0402479 0)
(7.32962 0.0360335 0)
(7.30699 0.0328363 0)
(7.28256 0.0302791 0)
(7.25704 0.0281406 0)
(7.23095 0.0262915 0)
(7.20465 0.0246565 0)
(7.17842 0.0231899 0)
(7.15244 0.0218632 0)
(7.12685 0.0206568 0)
(7.10173 0.0195569 0)
(7.07715 0.0185525 0)
(7.05314 0.0176347 0)
(7.02973 0.0167954 0)
(7.00694 0.0160276 0)
(6.98476 0.0153246 0)
(6.96319 0.0146803 0)
(6.94222 0.0140891 0)
(6.92184 0.0135459 0)
(6.90205 0.0130456 0)
(6.88282 0.012584 0)
(6.86416 0.0121568 0)
(6.84603 0.0117605 0)
(6.82843 0.0113915 0)
(6.81134 0.0110468 0)
(6.79476 0.0107238 0)
(6.77866 0.0104198 0)
(6.76305 0.010133 0)
(6.74789 0.00986156 0)
(6.73319 0.00960424 0)
(6.71893 0.00936043 0)
(6.7051 0.00913043 0)
(6.69168 0.00891616 0)
(6.67868 0.00872175 0)
(6.66607 0.00855801 0)
(6.65387 0.00844082 0)
(6.64198 0.00841976 0)
(6.63077 0.00857511 0)
(6.61937 0.00904694 0)
(6.61083 0.0107838 0)
(6.60121 0.0124869 0)
(6.60397 0.0255057 0)
(7.32146 -0.00788367 0)
(7.31337 -0.0228634 0)
(7.32538 -0.0195553 0)
(7.33964 -0.00308779 0)
(7.35208 0.0120865 0)
(7.36208 0.0218021 0)
(7.36881 0.0274944 0)
(7.3724 0.0307056 0)
(7.37332 0.0323141 0)
(7.37191 0.0329032 0)
(7.36847 0.0328837 0)
(7.3633 0.0325167 0)
(7.3567 0.0319582 0)
(7.34893 0.0313025 0)
(7.3402 0.0306074 0)
(7.33069 0.0299071 0)
(7.32057 0.0292208 0)
(7.30997 0.0285587 0)
(7.299 0.0279253 0)
(7.28776 0.0273221 0)
(7.27631 0.0267482 0)
(7.26473 0.0262021 0)
(7.25307 0.0256813 0)
(7.24138 0.0251834 0)
(7.2297 0.024706 0)
(7.21805 0.0242467 0)
(7.20647 0.0238032 0)
(7.19498 0.0233737 0)
(7.1836 0.0229563 0)
(7.17234 0.0225495 0)
(7.16122 0.022152 0)
(7.15025 0.0217624 0)
(7.13944 0.0213798 0)
(7.1288 0.0210034 0)
(7.11834 0.0206324 0)
(7.10806 0.0202664 0)
(7.09796 0.0199051 0)
(7.08806 0.0195486 0)
(7.07835 0.0191975 0)
(7.06884 0.0188533 0)
(7.05953 0.0185187 0)
(7.05041 0.0181995 0)
(7.04149 0.0179026 0)
(7.03278 0.0176533 0)
(7.02424 0.0174506 0)
(7.016 0.0174478 0)
(7.00783 0.0174235 0)
(7.00059 0.0183298 0)
(6.99344 0.0182668 0)
(6.98867 0.0200556 0)
(7.32822 -0.00709429 0)
(7.32239 0.00809041 0)
(7.32892 0.0215363 0)
(7.33623 0.0293067 0)
(7.34327 0.0331167 0)
(7.35053 0.0345516 0)
(7.35698 0.0350009 0)
(7.36219 0.0351012 0)
(7.36624 0.0349977 0)
(7.36915 0.0347414 0)
(7.37095 0.0343844 0)
(7.37174 0.0339632 0)
(7.37162 0.0334976 0)
(7.3707 0.033002 0)
(7.36908 0.032488 0)
(7.36684 0.0319651 0)
(7.36407 0.0314402 0)
(7.36085 0.0309185 0)
(7.35724 0.0304038 0)
(7.3533 0.0298987 0)
(7.34908 0.0294051 0)
(7.34463 0.028924 0)
(7.33999 0.0284556 0)
(7.33518 0.0280001 0)
(7.33024 0.0275572 0)
(7.32519 0.0271262 0)
(7.32006 0.0267064 0)
(7.31486 0.026297 0)
(7.30962 0.0258971 0)
(7.30434 0.0255058 0)
(7.29905 0.025122 0)
(7.29375 0.0247449 0)
(7.28846 0.0243735 0)
(7.28318 0.0240071 0)
(7.27793 0.023645 0)
(7.27271 0.0232865 0)
(7.26753 0.0229314 0)
(7.2624 0.0225797 0)
(7.25732 0.022232 0)
(7.25231 0.0218899 0)
(7.24736 0.0215562 0)
(7.24248 0.0212365 0)
(7.23767 0.0209385 0)
(7.23296 0.0206821 0)
(7.22833 0.0204768 0)
(7.22388 0.0204044 0)
(7.21955 0.0203823 0)
(7.21571 0.0207958 0)
(7.21226 0.0207551 0)
(7.20991 0.0217099 0)
(7.33095 -0.00120307 0)
(7.32744 0.0102903 0)
(7.33085 0.0174398 0)
(7.33563 0.0219537 0)
(7.34087 0.0258556 0)
(7.34665 0.0286464 0)
(7.35211 0.0304456 0)
(7.35691 0.0316229 0)
(7.3611 0.0323591 0)
(7.3647 0.0327613 0)
(7.36769 0.0329277 0)
(7.37009 0.032932 0)
(7.37196 0.0328218 0)
(7.37332 0.0326306 0)
(7.37424 0.032383 0)
(7.37474 0.032097 0)
(7.37487 0.0317856 0)
(7.37467 0.0314579 0)
(7.37419 0.0311207 0)
(7.37345 0.0307786 0)
(7.37248 0.030435 0)
(7.37132 0.0300921 0)
(7.37 0.0297511 0)
(7.36852 0.029413 0)
(7.36693 0.0290781 0)
(7.36522 0.0287464 0)
(7.36343 0.0284176 0)
(7.36156 0.0280915 0)
(7.35963 0.0277676 0)
(7.35765 0.0274452 0)
(7.35563 0.0271238 0)
(7.35358 0.0268029 0)
(7.3515 0.0264817 0)
(7.34941 0.0261597 0)
(7.34732 0.0258365 0)
(7.34523 0.0255118 0)
(7.34314 0.0251854 0)
(7.34106 0.0248575 0)
(7.339 0.0245289 0)
(7.33697 0.024201 0)
(7.33496 0.0238766 0)
(7.33299 0.0235606 0)
(7.33107 0.0232593 0)
(7.3292 0.0229869 0)
(7.3274 0.0227498 0)
(7.32573 0.0225915 0)
(7.3242 0.0224616 0)
(7.32302 0.0225007 0)
(7.32218 0.0222936 0)
(7.32194 0.0222158 0)
(7.33179 0.000595977 0)
(7.32981 0.00890248 0)
(7.33241 0.0153623 0)
(7.33635 0.0202424 0)
(7.34062 0.0243573 0)
(7.34532 0.0272161 0)
(7.34991 0.0290367 0)
(7.35411 0.0302458 0)
(7.35797 0.0310468 0)
(7.36148 0.031544 0)
(7.36463 0.0318254 0)
(7.36741 0.0319559 0)
(7.36986 0.031977 0)
(7.372 0.0319171 0)
(7.37383 0.0317972 0)
(7.37539 0.0316327 0)
(7.37671 0.0314348 0)
(7.37779 0.0312121 0)
(7.37866 0.0309706 0)
(7.37935 0.0307153 0)
(7.37987 0.0304496 0)
(7.38024 0.0301761 0)
(7.38048 0.0298968 0)
(7.3806 0.0296131 0)
(7.38063 0.0293258 0)
(7.38056 0.0290356 0)
(7.38042 0.0287428 0)
(7.38021 0.0284476 0)
(7.37995 0.02815 0)
(7.37964 0.0278497 0)
(7.37929 0.0275466 0)
(7.37892 0.0272403 0)
(7.37852 0.0269305 0)
(7.37811 0.0266169 0)
(7.37768 0.0262992 0)
(7.37726 0.025977 0)
(7.37683 0.0256505 0)
(7.37641 0.0253196 0)
(7.37601 0.0249851 0)
(7.37562 0.0246482 0)
(7.37525 0.024311 0)
(7.37491 0.023977 0)
(7.37462 0.0236507 0)
(7.37438 0.0233405 0)
(7.37421 0.0230491 0)
(7.37415 0.0227942 0)
(7.37425 0.0225404 0)
(7.37459 0.0223229 0)
(7.37521 0.0219161 0)
(7.37619 0.0213909 0)
(7.33226 0.0012358 0)
(7.33127 0.0081825 0)
(7.33352 0.0143567 0)
(7.33696 0.019021 0)
(7.34066 0.0228084 0)
(7.34469 0.0255408 0)
(7.34871 0.0273877 0)
(7.35248 0.0286741 0)
(7.35599 0.0295705 0)
(7.35928 0.0301714 0)
(7.36232 0.0305579 0)
(7.36511 0.0307911 0)
(7.36768 0.0309109 0)
(7.37004 0.0309454 0)
(7.3722 0.0309152 0)
(7.37417 0.0308353 0)
(7.37596 0.0307171 0)
(7.3776 0.0305687 0)
(7.37909 0.0303966 0)
(7.38044 0.0302055 0)
(7.38168 0.029999 0)
(7.38279 0.0297798 0)
(7.38381 0.0295501 0)
(7.38475 0.0293114 0)
(7.3856 0.0290649 0)
(7.38638 0.0288112 0)
(7.3871 0.0285509 0)
(7.38776 0.0282843 0)
(7.38838 0.0280116 0)
(7.38896 0.0277327 0)
(7.38951 0.0274475 0)
(7.39004 0.0271559 0)
(7.39055 0.0268577 0)
(7.39104 0.0265524 0)
(7.39152 0.0262399 0)
(7.392 0.0259199 0)
(7.39248 0.0255924 0)
(7.39297 0.0252573 0)
(7.39346 0.024915 0)
(7.39398 0.0245663 0)
(7.39451 0.0242125 0)
(7.39508 0.0238556 0)
(7.39569 0.023498 0)
(7.39635 0.0231431 0)
(7.39708 0.0227897 0)
(7.39792 0.0224402 0)
(7.39889 0.0220655 0)
(7.40005 0.0216562 0)
(7.40142 0.0210825 0)
(7.40301 0.0203211 0)
(7.33258 0.00166383 0)
(7.3322 0.00775529 0)
(7.33418 0.0134115 0)
(7.33725 0.0177723 0)
(7.3406 0.0213317 0)
(7.34423 0.024011 0)
(7.34786 0.0258991 0)
(7.35131 0.0272459 0)
(7.35457 0.0282082 0)
(7.35765 0.0288787 0)
(7.36053 0.0293342 0)
(7.36324 0.0296337 0)
(7.36578 0.0298168 0)
(7.36817 0.0299115 0)
(7.37041 0.0299384 0)
(7.37252 0.0299128 0)
(7.3745 0.0298456 0)
(7.37638 0.0297452 0)
(7.37814 0.0296178 0)
(7.37981 0.0294682 0)
(7.38139 0.0293 0)
(7.38288 0.0291158 0)
(7.3843 0.0289178 0)
(7.38566 0.0287075 0)
(7.38695 0.0284861 0)
(7.38819 0.0282543 0)
(7.38938 0.0280129 0)
(7.39053 0.027762 0)
(7.39165 0.0275021 0)
(7.39273 0.027233 0)
(7.39379 0.0269547 0)
(7.39482 0.0266672 0)
(7.39585 0.0263702 0)
(7.39686 0.0260634 0)
(7.39786 0.0257465 0)
(7.39886 0.0254193 0)
(7.39987 0.0250815 0)
(7.40088 0.024733 0)
(7.4019 0.0243738 0)
(7.40294 0.024004 0)
(7.404 0.0236242 0)
(7.40509 0.0232349 0)
(7.40622 0.0228363 0)
(7.4074 0.0224284 0)
(7.40866 0.0220066 0)
(7.41 0.0215648 0)
(7.41145 0.0210777 0)
(7.41305 0.020521 0)
(7.4148 0.0198137 0)
(7.41669 0.0189128 0)
(7.33278 0.00189414 0)
(7.33278 0.00731355 0)
(7.33455 0.0124709 0)
(7.33732 0.0165901 0)
(7.3404 0.019977 0)
(7.34372 0.0225969 0)
(7.34708 0.0245029 0)
(7.35031 0.0258919 0)
(7.35337 0.0269051 0)
(7.35628 0.0276302 0)
(7.35904 0.0281395 0)
(7.36165 0.0284892 0)
(7.36412 0.0287188 0)
(7.36647 0.0288565 0)
(7.36871 0.0289232 0)
(7.37085 0.0289342 0)
(7.37289 0.0289011 0)
(7.37485 0.0288321 0)
(7.37673 0.0287337 0)
(7.37854 0.0286107 0)
(7.38029 0.0284667 0)
(7.38197 0.0283045 0)
(7.3836 0.0281262 0)
(7.38517 0.0279333 0)
(7.38671 0.0277271 0)
(7.3882 0.0275082 0)
(7.38965 0.0272773 0)
(7.39108 0.0270349 0)
(7.39248 0.0267809 0)
(7.39385 0.0265156 0)
(7.39521 0.0262389 0)
(7.39655 0.0259505 0)
(7.39788 0.0256503 0)
(7.3992 0.0253379 0)
(7.40052 0.025013 0)
(7.40184 0.0246751 0)
(7.40316 0.0243239 0)
(7.40449 0.0239588 0)
(7.40583 0.0235796 0)
(7.40719 0.0231859 0)
(7.40857 0.0227772 0)
(7.40998 0.0223527 0)
(7.41143 0.0219111 0)
(7.41292 0.0214495 0)
(7.41448 0.0209613 0)
(7.41612 0.0204364 0)
(7.41785 0.0198522 0)
(7.41969 0.0191822 0)
(7.42163 0.0183727 0)
(7.42367 0.0173846 0)
(7.33289 0.00197997 0)
(7.33313 0.00687879 0)
(7.33473 0.0116013 0)
(7.33723 0.0154931 0)
(7.34007 0.0187146 0)
(7.34315 0.0212613 0)
(7.34628 0.0231691 0)
(7.34933 0.024589 0)
(7.35224 0.0256438 0)
(7.35503 0.0264148 0)
(7.35768 0.0269691 0)
(7.3602 0.0273604 0)
(7.36261 0.0276275 0)
(7.36491 0.0277987 0)
(7.36712 0.0278952 0)
(7.36925 0.0279328 0)
(7.3713 0.0279232 0)
(7.37328 0.0278752 0)
(7.3752 0.0277955 0)
(7.37707 0.0276891 0)
(7.37888 0.0275596 0)
(7.38065 0.0274101 0)
(7.38238 0.0272425 0)
(7.38407 0.0270586 0)
(7.38573 0.0268595 0)
(7.38736 0.0266461 0)
(7.38897 0.0264188 0)
(7.39055 0.026178 0)
(7.39211 0.025924 0)
(7.39365 0.0256567 0)
(7.39518 0.0253761 0)
(7.3967 0.0250819 0)
(7.39822 0.0247737 0)
(7.39973 0.0244513 0)
(7.40124 0.0241141 0)
(7.40275 0.0237615 0)
(7.40427 0.023393 0)
(7.4058 0.0230078 0)
(7.40734 0.0226051 0)
(7.4089 0.022184 0)
(7.41048 0.0217433 0)
(7.41209 0.0212811 0)
(7.41373 0.0207946 0)
(7.41542 0.0202795 0)
(7.41717 0.0197279 0)
(7.41897 0.0191282 0)
(7.42086 0.0184608 0)
(7.42282 0.0177015 0)
(7.42486 0.0168134 0)
(7.42696 0.0157663 0)
(7.33296 0.00197914 0)
(7.33333 0.00646174 0)
(7.33479 0.0107983 0)
(7.33705 0.0144652 0)
(7.33967 0.017527 0)
(7.34252 0.0199932 0)
(7.34546 0.0218884 0)
(7.34835 0.0233269 0)
(7.35113 0.0244136 0)
(7.35381 0.0252225 0)
(7.35638 0.0258153 0)
(7.35883 0.0262425 0)
(7.36118 0.0265417 0)
(7.36343 0.0267411 0)
(7.3656 0.0268619 0)
(7.3677 0.0269202 0)
(7.36974 0.0269282 0)
(7.37172 0.0268951 0)
(7.37365 0.0268278 0)
(7.37553 0.0267315 0)
(7.37737 0.0266102 0)
(7.37918 0.026467 0)
(7.38095 0.0263041 0)
(7.3827 0.0261231 0)
(7.38442 0.0259254 0)
(7.38612 0.0257118 0)
(7.38781 0.0254828 0)
(7.38947 0.0252388 0)
(7.39112 0.0249799 0)
(7.39277 0.0247062 0)
(7.3944 0.0244174 0)
(7.39603 0.0241134 0)
(7.39765 0.0237936 0)
(7.39927 0.0234577 0)
(7.4009 0.023105 0)
(7.40253 0.0227347 0)
(7.40417 0.0223461 0)
(7.40582 0.0219381 0)
(7.40748 0.0215095 0)
(7.40916 0.021059 0)
(7.41086 0.0205845 0)
(7.4126 0.0200837 0)
(7.41436 0.0195526 0)
(7.41617 0.0189859 0)
(7.41802 0.0183755 0)
(7.41992 0.0177097 0)
(7.42189 0.0169718 0)
(7.42391 0.0161417 0)
(7.42598 0.0151931 0)
(7.42809 0.0141044 0)
(7.333 0.00192757 0)
(7.33343 0.00606099 0)
(7.33478 0.0100541 0)
(7.33683 0.0135021 0)
(7.33924 0.0164101 0)
(7.34189 0.0187892 0)
(7.34463 0.0206579 0)
(7.34737 0.0221023 0)
(7.35004 0.0232104 0)
(7.35262 0.024049 0)
(7.3551 0.0246739 0)
(7.35749 0.0251319 0)
(7.35979 0.0254591 0)
(7.362 0.025683 0)
(7.36414 0.0258246 0)
(7.36621 0.0259002 0)
(7.36822 0.0259224 0)
(7.37019 0.0259005 0)
(7.37211 0.0258417 0)
(7.37399 0.0257517 0)
(7.37584 0.0256346 0)
(7.37765 0.0254937 0)
(7.37945 0.0253313 0)
(7.38122 0.0251494 0)
(7.38297 0.024949 0)
(7.3847 0.0247313 0)
(7.38642 0.0244967 0)
(7.38813 0.0242458 0)
(7.38983 0.0239785 0)
(7.39152 0.0236948 0)
(7.39321 0.0233946 0)
(7.3949 0.0230776 0)
(7.39658 0.0227433 0)
(7.39827 0.022391 0)
(7.39996 0.0220201 0)
(7.40166 0.0216296 0)
(7.40337 0.0212185 0)
(7.40509 0.0207856 0)
(7.40683 0.0203294 0)
(7.40858 0.0198479 0)
(7.41035 0.0193389 0)
(7.41216 0.0187991 0)
(7.41399 0.0182243 0)
(7.41585 0.0176088 0)
(7.41776 0.0169443 0)
(7.41971 0.0162204 0)
(7.42171 0.0154229 0)
(7.42374 0.0145355 0)
(7.42581 0.0135397 0)
(7.4279 0.0124204 0)
(7.33302 0.00184725 0)
(7.33348 0.00567653 0)
(7.33472 0.00936363 0)
(7.33658 0.012601 0)
(7.33881 0.0153594 0)
(7.34126 0.0176465 0)
(7.34383 0.0194767 0)
(7.34642 0.0209149 0)
(7.34897 0.0220342 0)
(7.35145 0.0228938 0)
(7.35386 0.0235439 0)
(7.35618 0.0240275 0)
(7.35843 0.0243785 0)
(7.3606 0.0246235 0)
(7.36271 0.0247832 0)
(7.36475 0.0248737 0)
(7.36674 0.0249077 0)
(7.36869 0.0248947 0)
(7.37059 0.0248423 0)
(7.37247 0.0247562 0)
(7.37431 0.0246409 0)
(7.37612 0.0244998 0)
(7.37791 0.0243354 0)
(7.37969 0.0241498 0)
(7.38145 0.0239442 0)
(7.38319 0.0237198 0)
(7.38493 0.0234771 0)
(7.38665 0.0232165 0)
(7.38838 0.0229382 0)
(7.39009 0.0226422 0)
(7.39181 0.0223282 0)
(7.39352 0.0219959 0)
(7.39524 0.0216447 0)
(7.39696 0.021274 0)
(7.39869 0.0208829 0)
(7.40042 0.0204704 0)
(7.40217 0.0200353 0)
(7.40393 0.019576 0)
(7.4057 0.0190909 0)
(7.40749 0.0185778 0)
(7.4093 0.0180339 0)
(7.41114 0.0174558 0)
(7.413 0.016839 0)
(7.41489 0.0161776 0)
(7.41682 0.0154642 0)
(7.41878 0.0146892 0)
(7.42077 0.0138411 0)
(7.42279 0.0129072 0)
(7.42484 0.011874 0)
(7.42689 0.0107313 0)
(7.33303 0.001752 0)
(7.3335 0.00530907 0)
(7.33463 0.00872175 0)
(7.33634 0.0117576 0)
(7.33838 0.0143704 0)
(7.34066 0.016562 0)
(7.34307 0.018344 0)
(7.34551 0.0197654 0)
(7.34794 0.0208862 0)
(7.35033 0.0217582 0)
(7.35266 0.0224265 0)
(7.35492 0.0229299 0)
(7.35711 0.0233004 0)
(7.35924 0.0235631 0)
(7.36131 0.0237381 0)
(7.36333 0.0238412 0)
(7.36529 0.0238851 0)
(7.36722 0.0238794 0)
(7.36911 0.0238317 0)
(7.37097 0.023748 0)
(7.37279 0.023633 0)
(7.3746 0.0234902 0)
(7.37639 0.0233223 0)
(7.37816 0.0231314 0)
(7.37991 0.0229189 0)
(7.38166 0.0226861 0)
(7.38339 0.0224336 0)
(7.38513 0.0221618 0)
(7.38685 0.0218709 0)
(7.38857 0.0215608 0)
(7.3903 0.0212314 0)
(7.39202 0.0208823 0)
(7.39375 0.0205128 0)
(7.39548 0.0201222 0)
(7.39722 0.0197096 0)
(7.39897 0.0192738 0)
(7.40073 0.0188136 0)
(7.4025 0.0183272 0)
(7.40429 0.0178127 0)
(7.40609 0.0172677 0)
(7.40792 0.0166894 0)
(7.40976 0.0160741 0)
(7.41163 0.0154174 0)
(7.41352 0.0147136 0)
(7.41544 0.013956 0)
(7.41739 0.0131363 0)
(7.41936 0.0122453 0)
(7.42135 0.0112731 0)
(7.42335 0.01021 0)
(7.42536 0.00904913 0)
(7.33304 0.00165038 0)
(7.33349 0.00495904 0)
(7.33454 0.00812363 0)
(7.3361 0.0109676 0)
(7.33798 0.0134385 0)
(7.3401 0.0155327 0)
(7.34235 0.0172589 0)
(7.34466 0.0186542 0)
(7.34697 0.0197676 0)
(7.34926 0.020644 0)
(7.35151 0.0213234 0)
(7.3537 0.0218411 0)
(7.35584 0.0222264 0)
(7.35793 0.0225031 0)
(7.35996 0.0226904 0)
(7.36194 0.0228039 0)
(7.36388 0.0228558 0)
(7.36579 0.0228557 0)
(7.36766 0.0228114 0)
(7.3695 0.022729 0)
(7.37131 0.0226132 0)
(7.3731 0.0224676 0)
(7.37488 0.0222951 0)
(7.37664 0.022098 0)
(7.37839 0.0218777 0)
(7.38012 0.0216355 0)
(7.38185 0.0213721 0)
(7.38358 0.0210881 0)
(7.3853 0.0207835 0)
(7.38702 0.0204585 0)
(7.38874 0.0201127 0)
(7.39046 0.0197458 0)
(7.39219 0.0193571 0)
(7.39392 0.0189458 0)
(7.39566 0.018511 0)
(7.39741 0.0180514 0)
(7.39917 0.0175656 0)
(7.40094 0.0170518 0)
(7.40272 0.0165081 0)
(7.40452 0.0159318 0)
(7.40633 0.01532 0)
(7.40817 0.0146692 0)
(7.41002 0.0139751 0)
(7.4119 0.0132324 0)
(7.4138 0.0124352 0)
(7.41571 0.0115765 0)
(7.41765 0.010649 0)
(7.41959 0.009645 0)
(7.42154 0.00855764 0)
(7.42349 0.00738245 0)
(7.33304 0.00154752 0)
(7.33347 0.00462656 0)
(7.33444 0.00756487 0)
(7.33587 0.0102266 0)
(7.33761 0.0125594 0)
(7.33957 0.0145551 0)
(7.34168 0.0162197 0)
(7.34386 0.0175811 0)
(7.34606 0.0186792 0)
(7.34826 0.0195526 0)
(7.35042 0.0202366 0)
(7.35255 0.0207628 0)
(7.35463 0.0211583 0)
(7.35667 0.0214452 0)
(7.35866 0.0216419 0)
(7.36061 0.0217632 0)
(7.36252 0.021821 0)
(7.3644 0.0218251 0)
(7.36625 0.0217829 0)
(7.36807 0.0217006 0)
(7.36987 0.021583 0)
(7.37164 0.0214339 0)
(7.3734 0.0212561 0)
(7.37515 0.0210521 0)
(7.37688 0.0208233 0)
(7.37861 0.0205712 0)
(7.38033 0.0202964 0)
(7.38204 0.0199996 0)
(7.38375 0.0196809 0)
(7.38546 0.0193403 0)
(7.38717 0.0189777 0)
(7.38889 0.0185925 0)
(7.3906 0.0181843 0)
(7.39232 0.017752 0)
(7.39405 0.0172948 0)
(7.39579 0.0168113 0)
(7.39753 0.0163 0)
(7.39929 0.0157592 0)
(7.40106 0.0151867 0)
(7.40284 0.0145801 0)
(7.40464 0.0139363 0)
(7.40645 0.0132521 0)
(7.40828 0.0125232 0)
(7.41013 0.0117452 0)
(7.41199 0.0109128 0)
(7.41387 0.0100202 0)
(7.41575 0.00906157 0)
(7.41764 0.00803121 0)
(7.41953 0.00692414 0)
(7.42142 0.00573756 0)
(7.33304 0.00144636 0)
(7.33345 0.00431139 0)
(7.33434 0.00704161 0)
(7.33566 0.0095306 0)
(7.33727 0.0117292 0)
(7.33909 0.013626 0)
(7.34107 0.0152243 0)
(7.34312 0.0165453 0)
(7.34522 0.0176212 0)
(7.34732 0.0184849 0)
(7.3494 0.0191674 0)
(7.35146 0.0196969 0)
(7.35348 0.0200979 0)
(7.35547 0.0203913 0)
(7.35742 0.0205942 0)
(7.35933 0.0207207 0)
(7.36121 0.0207825 0)
(7.36306 0.0207889 0)
(7.36489 0.0207475 0)
(7.36669 0.0206642 0)
(7.36846 0.020544 0)
(7.37022 0.0203905 0)
(7.37197 0.0202069 0)
(7.3737 0.0199954 0)
(7.37542 0.0197578 0)
(7.37713 0.0194953 0)
(7.37883 0.0192088 0)
(7.38053 0.018899 0)
(7.38223 0.0185659 0)
(7.38392 0.0182097 0)
(7.38562 0.0178301 0)
(7.38731 0.0174267 0)
(7.38901 0.0169989 0)
(7.39072 0.0165458 0)
(7.39243 0.0160663 0)
(7.39415 0.0155592 0)
(7.39587 0.015023 0)
(7.39761 0.0144559 0)
(7.39936 0.0138558 0)
(7.40112 0.0132201 0)
(7.40289 0.0125462 0)
(7.40467 0.0118308 0)
(7.40646 0.0110702 0)
(7.40827 0.0102603 0)
(7.41009 0.00939676 0)
(7.41192 0.0084748 0)
(7.41375 0.0074898 0)
(7.41559 0.00643752 0)
(7.41741 0.00531444 0)
(7.41923 0.00411888 0)
(7.33304 0.00134853 0)
(7.33342 0.00401301 0)
(7.33425 0.00655044 0)
(7.33546 0.00887559 0)
(7.33695 0.010944 0)
(7.33865 0.0127419 0)
(7.3405 0.0142705 0)
(7.34244 0.0155458 0)
(7.34443 0.0165935 0)
(7.34644 0.0174415 0)
(7.34845 0.0181168 0)
(7.35043 0.0186444 0)
(7.3524 0.0190468 0)
(7.35433 0.0193429 0)
(7.35624 0.0195488 0)
(7.35812 0.0196781 0)
(7.35996 0.0197417 0)
(7.36178 0.0197488 0)
(7.36358 0.0197066 0)
(7.36536 0.0196212 0)
(7.36711 0.0194974 0)
(7.36885 0.019339 0)
(7.37057 0.0191489 0)
(7.37229 0.0189295 0)
(7.37399 0.0186827 0)
(7.37568 0.0184096 0)
(7.37737 0.0181113 0)
(7.37905 0.0177883 0)
(7.38073 0.0174409 0)
(7.38241 0.0170691 0)
(7.38408 0.0166727 0)
(7.38576 0.0162512 0)
(7.38744 0.0158041 0)
(7.38913 0.0153305 0)
(7.39082 0.0148294 0)
(7.39251 0.0142995 0)
(7.39421 0.0137392 0)
(7.39592 0.0131468 0)
(7.39764 0.0125203 0)
(7.39937 0.0118574 0)
(7.40111 0.0111554 0)
(7.40285 0.0104113 0)
(7.40461 0.00962191 0)
(7.40638 0.00878364 0)
(7.40815 0.00789276 0)
(7.40992 0.0069455 0)
(7.4117 0.00593823 0)
(7.41347 0.00486784 0)
(7.41523 0.00373185 0)
(7.41699 0.00252938 0)
(7.33303 0.00125483 0)
(7.33339 0.00373071 0)
(7.33416 0.00608835 0)
(7.33528 0.00825798 0)
(7.33666 0.0102 0)
(7.33825 0.0118996 0)
(7.33999 0.013356 0)
(7.34182 0.0145811 0)
(7.34371 0.0155954 0)
(7.34563 0.0164223 0)
(7.34756 0.0170853 0)
(7.34948 0.0176065 0)
(7.35138 0.018006 0)
(7.35327 0.0183012 0)
(7.35513 0.0185072 0)
(7.35696 0.0186366 0)
(7.35877 0.0186999 0)
(7.36056 0.0187059 0)
(7.36233 0.0186616 0)
(7.36408 0.018573 0)
(7.36581 0.0184447 0)
(7.36753 0.0182805 0)
(7.36923 0.0180834 0)
(7.37092 0.0178557 0)
(7.3726 0.0175994 0)
(7.37428 0.0173156 0)
(7.37595 0.0170054 0)
(7.37761 0.0166692 0)
(7.37927 0.0163076 0)
(7.38093 0.0159204 0)
(7.38258 0.0155074 0)
(7.38424 0.0150683 0)
(7.3859 0.0146025 0)
(7.38756 0.0141091 0)
(7.38922 0.013587 0)
(7.39089 0.0130351 0)
(7.39257 0.0124519 0)
(7.39425 0.0118356 0)
(7.39593 0.0111844 0)
(7.39763 0.010496 0)
(7.39933 0.00976812 0)
(7.40104 0.00899798 0)
(7.40275 0.00818273 0)
(7.40447 0.00731934 0)
(7.40619 0.00640471 0)
(7.40791 0.00543583 0)
(7.40962 0.00440992 0)
(7.41133 0.00332471 0)
(7.41303 0.00217851 0)
(7.41472 0.000970953 0)
(7.33303 0.00116554 0)
(7.33337 0.0034636 0)
(7.33408 0.00565267 0)
(7.33512 0.00767444 0)
(7.3364 0.00949397 0)
(7.33788 0.0110961 0)
(7.33952 0.0124786 0)
(7.34125 0.0136498 0)
(7.34305 0.0146262 0)
(7.34488 0.0154273 0)
(7.34673 0.0160733 0)
(7.34858 0.0165837 0)
(7.35043 0.0169764 0)
(7.35226 0.0172674 0)
(7.35407 0.0174705 0)
(7.35587 0.0175975 0)
(7.35765 0.0176585 0)
(7.3594 0.0176616 0)
(7.36114 0.0176137 0)
(7.36286 0.0175207 0)
(7.36457 0.0173869 0)
(7.36626 0.0172162 0)
(7.36794 0.0170115 0)
(7.36961 0.0167752 0)
(7.37127 0.0165091 0)
(7.37292 0.0162145 0)
(7.37457 0.0158923 0)
(7.37621 0.0155432 0)
(7.37785 0.0151675 0)
(7.37949 0.0147652 0)
(7.38112 0.0143361 0)
(7.38275 0.0138799 0)
(7.38439 0.013396 0)
(7.38602 0.0128835 0)
(7.38766 0.0123415 0)
(7.3893 0.0117687 0)
(7.39094 0.0111638 0)
(7.39259 0.0105251 0)
(7.39425 0.00985091 0)
(7.3959 0.00913915 0)
(7.39756 0.00838765 0)
(7.39923 0.00759403 0)
(7.40089 0.00675581 0)
(7.40256 0.00587044 0)
(7.40423 0.00493537 0)
(7.40589 0.00394822 0)
(7.40755 0.00290689 0)
(7.4092 0.00180976 0)
(7.41084 0.000655703 0)
(7.41246 -0.000555298 0)
(7.33303 0.00108068 0)
(7.33334 0.00321071 0)
(7.334 0.005241 0)
(7.33497 0.00712195 0)
(7.33616 0.0088228 0)
(7.33755 0.0103286 0)
(7.33909 0.0116358 0)
(7.34072 0.0127503 0)
(7.34243 0.0136849 0)
(7.34419 0.014456 0)
(7.34596 0.0150808 0)
(7.34775 0.0155763 0)
(7.34954 0.0159586 0)
(7.35132 0.0162421 0)
(7.35309 0.0164395 0)
(7.35484 0.0165618 0)
(7.35658 0.0166182 0)
(7.3583 0.0166168 0)
(7.36001 0.016564 0)
(7.3617 0.0164653 0)
(7.36338 0.0163252 0)
(7.36505 0.0161473 0)
(7.36671 0.0159345 0)
(7.36835 0.0156891 0)
(7.36999 0.015413 0)
(7.37162 0.0151074 0)
(7.37324 0.0147733 0)
(7.37486 0.0144114 0)
(7.37648 0.0140219 0)
(7.37809 0.0136049 0)
(7.3797 0.0131602 0)
(7.38131 0.0126876 0)
(7.38291 0.0121863 0)
(7.38452 0.0116557 0)
(7.38613 0.0110947 0)
(7.38774 0.0105023 0)
(7.38935 0.00987712 0)
(7.39097 0.00921768 0)
(7.39258 0.00852232 0)
(7.3942 0.00778924 0)
(7.39582 0.00701646 0)
(7.39744 0.00620194 0)
(7.39906 0.00534354 0)
(7.40068 0.00443913 0)
(7.40229 0.00348667 0)
(7.4039 0.00248429 0)
(7.4055 0.00143042 0)
(7.40709 0.000323934 0)
(7.40866 -0.000835865 0)
(7.41022 -0.00204878 0)
(7.33303 0.00100009 0)
(7.33332 0.00297106 0)
(7.33393 0.0048512 0)
(7.33483 0.00659776 0)
(7.33595 0.00818361 0)
(7.33725 0.00959434 0)
(7.33869 0.0108254 0)
(7.34024 0.0118808 0)
(7.34187 0.0127705 0)
(7.34355 0.0135078 0)
(7.34525 0.0141076 0)
(7.34698 0.0145846 0)
(7.34871 0.0149531 0)
(7.35044 0.0152261 0)
(7.35216 0.015415 0)
(7.35387 0.0155302 0)
(7.35557 0.0155801 0)
(7.35726 0.0155724 0)
(7.35894 0.0155132 0)
(7.3606 0.0154078 0)
(7.36225 0.0152604 0)
(7.36389 0.0150746 0)
(7.36552 0.0148532 0)
(7.36715 0.0145984 0)
(7.36876 0.0143121 0)
(7.37037 0.0139955 0)
(7.37197 0.0136496 0)
(7.37356 0.013275 0)
(7.37515 0.012872 0)
(7.37674 0.0124408 0)
(7.37832 0.0119811 0)
(7.3799 0.0114927 0)
(7.38148 0.0109749 0)
(7.38306 0.0104272 0)
(7.38464 0.00984842 0)
(7.38622 0.00923769 0)
(7.3878 0.00859374 0)
(7.38937 0.00791522 0)
(7.39095 0.00720061 0)
(7.39253 0.00644829 0)
(7.39411 0.00565656 0)
(7.39568 0.00482363 0)
(7.39725 0.00394771 0)
(7.39882 0.00302704 0)
(7.40038 0.00206001 0)
(7.40194 0.00104516 0)
(7.40348 -1.86516e-05 0)
(7.40501 -0.00113218 0)
(7.40652 -0.0022958 0)
(7.40801 -0.00350918 0)
(7.33303 0.000923545 0)
(7.3333 0.00274363 0)
(7.33387 0.00448133 0)
(7.33471 0.00609936 0)
(7.33575 0.00757376 0)
(7.33697 0.00889081 0)
(7.33834 0.0100454 0)
(7.33981 0.0110398 0)
(7.34135 0.0118817 0)
(7.34296 0.0125821 0)
(7.3446 0.0131535 0)
(7.34626 0.0136086 0)
(7.34793 0.0139602 0)
(7.34961 0.0142197 0)
(7.35129 0.0143976 0)
(7.35296 0.0145034 0)
(7.35462 0.0145449 0)
(7.35627 0.0145293 0)
(7.35792 0.0144624 0)
(7.35955 0.0143491 0)
(7.36117 0.0141935 0)
(7.36279 0.0139991 0)
(7.36439 0.0137685 0)
(7.36599 0.013504 0)
(7.36758 0.0132073 0)
(7.36916 0.0128797 0)
(7.37074 0.012522 0)
(7.37231 0.012135 0)
(7.37387 0.011719 0)
(7.37543 0.011274 0)
(7.37699 0.0108 0)
(7.37854 0.0102966 0)
(7.38009 0.00976327 0)
(7.38164 0.00919939 0)
(7.38319 0.0086041 0)
(7.38473 0.00797643 0)
(7.38628 0.00731528 0)
(7.38782 0.0066194 0)
(7.38936 0.00588745 0)
(7.39089 0.005118 0)
(7.39243 0.00430957 0)
(7.39396 0.00346065 0)
(7.39548 0.00256974 0)
(7.397 0.00163543 0)
(7.3985 0.000656422 0)
(7.4 -0.000368364 0)
(7.40149 -0.00143976 0)
(7.40296 -0.00255821 0)
(7.40441 -0.00372388 0)
(7.40584 -0.00493631 0)
(7.33302 0.000850755 0)
(7.33328 0.00252744 0)
(7.33381 0.0041296 0)
(7.33459 0.00562448 0)
(7.33557 0.0069908 0)
(7.33672 0.00821568 0)
(7.33801 0.00929362 0)
(7.3394 0.0102256 0)
(7.34088 0.0110174 0)
(7.34241 0.011678 0)
(7.34399 0.012218 0)
(7.34559 0.0126482 0)
(7.34721 0.0129799 0)
(7.34884 0.0132232 0)
(7.35047 0.0133877 0)
(7.3521 0.0134819 0)
(7.35372 0.0135132 0)
(7.35534 0.0134881 0)
(7.35695 0.0134121 0)
(7.35856 0.0132898 0)
(7.36015 0.0131252 0)
(7.36174 0.0129215 0)
(7.36332 0.0126814 0)
(7.36489 0.0124068 0)
(7.36645 0.0120996 0)
(7.368 0.0117609 0)
(7.36955 0.0113917 0)
(7.3711 0.0109926 0)
(7.37264 0.0105639 0)
(7.37417 0.0101058 0)
(7.3757 0.00961804 0)
(7.37722 0.00910046 0)
(7.37875 0.00855255 0)
(7.38026 0.00797369 0)
(7.38178 0.00736312 0)
(7.38329 0.00671995 0)
(7.3848 0.00604318 0)
(7.3863 0.00533169 0)
(7.3878 0.00458432 0)
(7.38929 0.00379981 0)
(7.39078 0.00297689 0)
(7.39227 0.0021143 0)
(7.39374 0.00121082 0)
(7.39521 0.000265292 0)
(7.39666 -0.000723267 0)
(7.39811 -0.00175567 0)
(7.39954 -0.00283246 0)
(7.40095 -0.00395388 0)
(7.40234 -0.0051199 0)
(7.40371 -0.00633005 0)
(7.33302 0.000781436 0)
(7.33326 0.00232157 0)
(7.33376 0.00379442 0)
(7.33449 0.00517105 0)
(7.33541 0.0064325 0)
(7.3365 0.00756676 0)
(7.33771 0.00856812 0)
(7.33904 0.00943656 0)
(7.34044 0.0101764 0)
(7.34191 0.0107948 0)
(7.34342 0.0113006 0)
(7.34497 0.0117032 0)
(7.34654 0.0120123 0)
(7.34812 0.0122369 0)
(7.3497 0.0123857 0)
(7.35129 0.0124664 0)
(7.35288 0.0124856 0)
(7.35446 0.0124495 0)
(7.35604 0.0123631 0)
(7.35761 0.0122308 0)
(7.35918 0.0120563 0)
(7.36074 0.0118427 0)
(7.36229 0.0115925 0)
(7.36383 0.0113076 0)
(7.36537 0.0109897 0)
(7.3669 0.0106401 0)
(7.36842 0.0102595 0)
(7.36994 0.00984859 0)
(7.37145 0.00940772 0)
(7.37295 0.00893699 0)
(7.37445 0.00843633 0)
(7.37595 0.00790546 0)
(7.37744 0.00734398 0)
(7.37893 0.00675131 0)
(7.38041 0.00612676 0)
(7.38188 0.00546955 0)
(7.38335 0.00477876 0)
(7.38482 0.00405343 0)
(7.38628 0.00329253 0)
(7.38773 0.00249499 0)
(7.38918 0.00165973 0)
(7.39061 0.000785705 0)
(7.39204 -0.000128079 0)
(7.39346 -0.00108252 0)
(7.39486 -0.00207837 0)
(7.39625 -0.0031162 0)
(7.39762 -0.00419636 0)
(7.39898 -0.0053189 0)
(7.40031 -0.0064837 0)
(7.40163 -0.00769025 0)
(7.33302 0.0007153 0)
(7.33324 0.00212512 0)
(7.33371 0.00347429 0)
(7.3344 0.00473716 0)
(7.33527 0.00589677 0)
(7.33629 0.00694199 0)
(7.33744 0.00786705 0)
(7.3387 0.00867116 0)
(7.34004 0.0093574 0)
(7.34145 0.00993148 0)
(7.3429 0.0104007 0)
(7.3444 0.0107732 0)
(7.34591 0.0110572 0)
(7.34744 0.0112609 0)
(7.34899 0.0113919 0)
(7.35053 0.011457 0)
(7.35208 0.0114625 0)
(7.35363 0.0114139 0)
(7.35518 0.0113159 0)
(7.35672 0.0111726 0)
(7.35825 0.0109875 0)
(7.35978 0.0107633 0)
(7.3613 0.0105026 0)
(7.36282 0.0102072 0)
(7.36433 0.00987859 0)
(7.36583 0.00951799 0)
(7.36733 0.00912625 0)
(7.36882 0.00870393 0)
(7.3703 0.00825138 0)
(7.37178 0.00776873 0)
(7.37325 0.0072559 0)
(7.37472 0.00671267 0)
(7.37617 0.00613867 0)
(7.37763 0.00553339 0)
(7.37907 0.00489621 0)
(7.38051 0.00422643 0)
(7.38195 0.00352325 0)
(7.38338 0.00278583 0)
(7.38479 0.00201327 0)
(7.3862 0.00120468 0)
(7.38761 0.000359156 0)
(7.389 -0.000524163 0)
(7.39038 -0.00144607 0)
(7.39174 -0.00240725 0)
(7.3931 -0.00340826 0)
(7.39443 -0.00444947 0)
(7.39575 -0.00553107 0)
(7.39705 -0.00665301 0)
(7.39833 -0.00781505 0)
(7.39959 -0.00901669 0)
(7.33302 0.000652074 0)
(7.33323 0.00193727 0)
(7.33367 0.00316787 0)
(7.33432 0.00432109 0)
(7.33513 0.00538171 0)
(7.3361 0.00633946 0)
(7.3372 0.00718862 0)
(7.33839 0.00792782 0)
(7.33968 0.00855916 0)
(7.34102 0.00908712 0)
(7.34242 0.00951772 0)
(7.34386 0.00985783 0)
(7.34533 0.0101146 0)
(7.34681 0.0102952 0)
(7.34831 0.0104063 0)
(7.34982 0.0104541 0)
(7.35133 0.0104443 0)
(7.35285 0.0103818 0)
(7.35436 0.0102711 0)
(7.35587 0.0101158 0)
(7.35737 0.00991925 0)