/*--------------------------------*- C++ -*----------------------------------*\
| =========                 |                                                 |
| \\      /  F ield         | OpenFOAM: The Open Source CFD Toolbox           |
|  \\    /   O peration     | Version:  5.x                                   |
|   \\  /    A nd           | Web:      www.OpenFOAM.org                      |
|    \\/     M anipulation  |                                                 |
\*---------------------------------------------------------------------------*/
FoamFile
{
    version     2.0;
    format      ascii;
    class       volScalarField;
    location    "300";
    object      nut;
}
// * * * * * * * * * * * * * * * * * * * * * * * * * * * * * * * * * * * * * //

dimensions      [0 2 -1 0 0 0 0];

internalField   nonuniform List<scalar> 
11040
(
0.00506929
0.0051589
0.00462564
0.00416612
0.00391231
0.00377457
0.00364851
0.00347487
0.00331284
0.00317187
0.00304723
0.00293591
0.00283609
0.0027463
0.00266548
0.00259011
0.00251388
0.00243986
0.00236829
0.00229984
0.00223416
0.00217339
0.00211774
0.00206502
0.00201413
0.0019678
0.00192689
0.00189018
0.00185614
0.00182367
0.00179218
0.00176108
0.00172966
0.00169711
0.00166254
0.00162545
0.00158369
0.00153876
0.00147541
0.00143945
0.00115656
0.0133693
0.0115941
0.00976688
0.00899684
0.0086419
0.0082488
0.00773281
0.00716561
0.00668479
0.00628542
0.00592063
0.00558482
0.00528199
0.00500555
0.00474935
0.0045197
0.00433195
0.00417901
0.00404574
0.00392309
0.00380919
0.00370799
0.00362054
0.00354577
0.00348236
0.00342257
0.00336217
0.0033042
0.00325249
0.00320835
0.0031713
0.00314045
0.00311513
0.00309473
0.00307914
0.00306758
0.00306198
0.00305647
0.00306696
0.00305675
0.00298312
0.0254703
0.022912
0.0194687
0.0161191
0.0136293
0.0119659
0.0108305
0.00998388
0.0095087
0.00914034
0.00876687
0.00845995
0.00821389
0.00798623
0.00776762
0.00755655
0.00733758
0.00713315
0.00695588
0.00680659
0.0066807
0.00657713
0.00648939
0.00640927
0.00633681
0.00628463
0.0062471
0.00621287
0.00617848
0.00614378
0.00610946
0.00607608
0.00604393
0.00601221
0.00598088
0.00594793
0.00591605
0.00586978
0.00584175
0.00576425
0.00534197
0.0379283
0.0350848
0.0303184
0.0256065
0.021765
0.0188911
0.0167464
0.0150008
0.0136122
0.012534
0.0116648
0.0113141
0.0110957
0.0108426
0.0106129
0.0104292
0.0102418
0.0100539
0.00988158
0.00973146
0.00960437
0.0095032
0.00942277
0.00935319
0.00929097
0.00924807
0.00922336
0.00920782
0.00919631
0.00918607
0.00917577
0.00916469
0.00915237
0.00913748
0.00911941
0.00909536
0.00906672
0.00901763
0.0089632
0.00891051
0.0082234
0.0502348
0.0473109
0.0424123
0.0372526
0.0326415
0.0288265
0.0257036
0.0229918
0.0206796
0.0187578
0.0171616
0.0158823
0.0148802
0.0140694
0.0136811
0.0134923
0.0132599
0.0130372
0.0128562
0.0127024
0.012573
0.0124728
0.0123969
0.0123343
0.0122805
0.0122472
0.0122351
0.0122364
0.0122459
0.0122596
0.0122748
0.0122895
0.012302
0.01231
0.012312
0.0123047
0.0122877
0.0122473
0.012182
0.0121503
0.0113864
0.0620246
0.0594237
0.0549729
0.0499476
0.045044
0.040622
0.0367369
0.0332103
0.0300803
0.0273697
0.0250377
0.0230347
0.0213295
0.0198814
0.0186908
0.0177231
0.0169091
0.0164778
0.0162193
0.0159811
0.0157921
0.0156547
0.015552
0.0154687
0.0153994
0.0153564
0.015341
0.0153456
0.0153639
0.0153909
0.0154226
0.0154557
0.0154875
0.0155149
0.0155356
0.0155455
0.0155427
0.0155156
0.0154523
0.0154339
0.0146992
0.0730263
0.0709178
0.0671968
0.0626319
0.0577404
0.053034
0.0487047
0.0446666
0.0409765
0.0376865
0.034755
0.032135
0.0298208
0.0277874
0.0260105
0.0244504
0.0230345
0.0217989
0.0207448
0.0200116
0.019633
0.019371
0.0191581
0.018985
0.018847
0.0187533
0.018702
0.0186833
0.0186869
0.0187052
0.0187326
0.018765
0.018799
0.0188305
0.0188566
0.0188726
0.0188756
0.0188554
0.0187952
0.0187821
0.0181158
0.0830562
0.0814528
0.0785239
0.074651
0.0702964
0.0658346
0.0614563
0.0571578
0.0530599
0.0492547
0.0457836
0.0426552
0.0398802
0.037362
0.0350907
0.0330369
0.0311311
0.0293727
0.0277689
0.0263409
0.0251144
0.0241708
0.0235757
0.0231888
0.022908
0.0227112
0.0225839
0.0225099
0.0224648
0.0224398
0.0224298
0.0224301
0.0224368
0.0224447
0.0224497
0.022447
0.0224327
0.022398
0.0223242
0.0222984
0.0216868
0.0920104
0.0908485
0.0886407
0.0855637
0.0819701
0.0780574
0.0740057
0.0698582
0.0657665
0.0617834
0.0579859
0.0544363
0.0511779
0.0482171
0.0455491
0.0431078
0.0408018
0.0386306
0.0366041
0.034727
0.033002
0.0314887
0.0302151
0.0291457
0.0283399
0.0278096
0.0274621
0.027223
0.0270532
0.0269302
0.0268392
0.0267691
0.0267139
0.0266625
0.0266103
0.0265533
0.0264876
0.0264042
0.0262846
0.0262159
0.0256057
0.0998579
0.0990458
0.0974285
0.095089
0.092256
0.0890459
0.0855921
0.0819144
0.0781142
0.0742882
0.0705152
0.0668741
0.0634149
0.0601582
0.057135
0.0543369
0.0517092
0.0492293
0.0468751
0.0446541
0.0425689
0.0406929
0.0390511
0.037589
0.0362884
0.0351668
0.034243
0.0335539
0.0330678
0.0327137
0.0324394
0.0322162
0.032028
0.0318613
0.0317058
0.0315576
0.0314048
0.031237
0.0310361
0.0308921
0.0302209
0.106625
0.106072
0.104905
0.103176
0.101021
0.0985305
0.0957717
0.0927242
0.0894927
0.0861164
0.0826556
0.0791851
0.0757788
0.0724938
0.0693704
0.066393
0.0635348
0.0608029
0.0582067
0.0557537
0.0534149
0.0512787
0.0493833
0.0476727
0.0461169
0.0447184
0.0434729
0.0423668
0.0413883
0.0405341
0.0398264
0.0392707
0.0388316
0.0384643
0.0381388
0.0378377
0.0375498
0.03726
0.0369509
0.0367094
0.0359394
0.112381
0.112015
0.11117
0.109924
0.108332
0.106463
0.104324
0.101927
0.0993146
0.0965262
0.093594
0.0905654
0.0875087
0.0844547
0.0814542
0.0785347
0.0756865
0.0729004
0.0701956
0.0675921
0.0650991
0.0628188
0.0607706
0.0588999
0.0571816
0.055618
0.0542037
0.0529184
0.0517419
0.0506579
0.0496553
0.0487278
0.0478703
0.0470803
0.0463776
0.0457768
0.0452609
0.0447918
0.0443324
0.0439647
0.0430867
0.117229
0.116995
0.116408
0.115513
0.114347
0.112965
0.111357
0.109538
0.107526
0.10534
0.102996
0.100516
0.0979377
0.0953027
0.0926622
0.0900189
0.0873741
0.0847465
0.0821576
0.0796096
0.0771188
0.074791
0.0726794
0.0707387
0.068947
0.0673036
0.0658131
0.0644452
0.0631804
0.0620027
0.060899
0.0598573
0.0588678
0.0579177
0.0570022
0.0561212
0.055275
0.0544529
0.0536516
0.053003
0.0519044
0.121286
0.12114
0.120746
0.1201
0.119246
0.118229
0.117036
0.115679
0.114153
0.112482
0.110675
0.108742
0.1067
0.104582
0.102402
0.100176
0.0979187
0.0956268
0.0933178
0.09101
0.0887234
0.0865432
0.0845294
0.0826521
0.0808988
0.0792731
0.077774
0.076389
0.0751032
0.0739022
0.0727787
0.0717152
0.0707013
0.0697243
0.0687774
0.0678569
0.0669598
0.0660703
0.0651802
0.0643734
0.0631155
0.124664
0.124578
0.124306
0.123842
0.123217
0.12247
0.121588
0.120572
0.119438
0.118193
0.116839
0.115379
0.113822
0.112181
0.11047
0.108708
0.106886
0.105012
0.103105
0.101165
0.0992054
0.0973096
0.0955413
0.0938699
0.0922876
0.0908008
0.0894116
0.088113
0.0868961
0.0857514
0.0846705
0.0836447
0.082672
0.0817353
0.0808286
0.0799492
0.0790951
0.0782512
0.0774125
0.0766395
0.0755014
0.12747
0.127425
0.127238
0.126902
0.126442
0.125889
0.125235
0.12448
0.123639
0.122716
0.121712
0.120627
0.119466
0.118235
0.116941
0.11559
0.114183
0.112731
0.111233
0.109694
0.108128
0.106593
0.105134
0.10374
0.102408
0.101145
0.0999591
0.09884
0.0977813
0.0967774
0.095823
0.094913
0.0940428
0.0932039
0.092397
0.0916166
0.0908611
0.0901176
0.0893844
0.0887036
0.0877651
0.129802
0.129788
0.129657
0.12941
0.129068
0.128655
0.128167
0.127606
0.126981
0.126296
0.125545
0.124735
0.123869
0.122951
0.121985
0.120983
0.119935
0.118844
0.117719
0.116557
0.11536
0.114184
0.113057
0.111969
0.110921
0.109918
0.108964
0.108058
0.107196
0.106379
0.1056
0.104855
0.10414
0.10345
0.102783
0.102142
0.101523
0.100917
0.100322
0.099767
0.0990451
0.131653
0.131661
0.131565
0.131378
0.131122
0.130809
0.130437
0.130015
0.129539
0.129019
0.128451
0.12784
0.127188
0.126497
0.125772
0.125013
0.124227
0.12341
0.122562
0.121692
0.120795
0.119905
0.119047
0.118217
0.117419
0.116653
0.115921
0.115221
0.114552
0.113913
0.113306
0.112725
0.112168
0.11163
0.11111
0.110612
0.110133
0.109665
0.109209
0.108781
0.108254
0.133069
0.133082
0.133012
0.132869
0.132676
0.132429
0.132137
0.131806
0.131434
0.131029
0.130592
0.130119
0.129615
0.129084
0.128527
0.127945
0.127338
0.126713
0.126067
0.1254
0.124719
0.124041
0.123387
0.122753
0.12214
0.12155
0.120985
0.120448
0.119935
0.119445
0.118976
0.118529
0.118102
0.11769
0.117294
0.116915
0.116552
0.116198
0.115855
0.115536
0.115158
0.134177
0.134193
0.13414
0.13403
0.133875
0.133676
0.133444
0.133176
0.132881
0.132556
0.132205
0.131832
0.131434
0.131014
0.130576
0.13012
0.129646
0.129155
0.128653
0.128136
0.127606
0.127083
0.126578
0.126088
0.125614
0.125158
0.124722
0.124304
0.123907
0.123529
0.123168
0.122824
0.122497
0.122182
0.121881
0.121593
0.121318
0.121053
0.120797
0.120558
0.120286
0.135066
0.135083
0.135042
0.134957
0.134828
0.134664
0.134473
0.134253
0.134011
0.133745
0.133461
0.133158
0.132839
0.132502
0.13215
0.131785
0.131408
0.131019
0.130622
0.130215
0.129798
0.129385
0.128989
0.128605
0.128235
0.127879
0.127539
0.127213
0.126904
0.12661
0.126329
0.126063
0.12581
0.125569
0.125338
0.125118
0.12491
0.124709
0.124516
0.124335
0.124138
0.135793
0.135809
0.135778
0.135706
0.135599
0.135465
0.135305
0.135124
0.134922
0.134702
0.134469
0.134218
0.133955
0.13368
0.133395
0.133101
0.132797
0.132485
0.132166
0.131839
0.131506
0.131176
0.130861
0.130556
0.130263
0.129981
0.129711
0.129454
0.129211
0.12898
0.128761
0.128553
0.128357
0.12817
0.127992
0.127824
0.127664
0.12751
0.127363
0.127225
0.127079
0.136396
0.136411
0.136388
0.136326
0.136238
0.136122
0.135988
0.135835
0.135666
0.135481
0.135284
0.135077
0.134857
0.134628
0.134392
0.134149
0.133899
0.133644
0.133383
0.133118
0.132849
0.132586
0.132332
0.132088
0.131852
0.131626
0.131411
0.131207
0.131014
0.130832
0.130659
0.130496
0.130342
0.130196
0.130057
0.129926
0.129802
0.129683
0.12957
0.129464
0.129355
0.136904
0.136917
0.136897
0.136845
0.136769
0.136671
0.136557
0.136428
0.136284
0.136128
0.135962
0.135785
0.135601
0.13541
0.135211
0.135007
0.134799
0.134587
0.134372
0.134156
0.133938
0.133723
0.133516
0.133317
0.133126
0.132943
0.13277
0.132606
0.132452
0.132306
0.132168
0.13204
0.131918
0.131802
0.131693
0.131589
0.131491
0.131398
0.13131
0.131228
0.131145
0.137336
0.137347
0.137329
0.137286
0.13722
0.137137
0.13704
0.136927
0.136804
0.136669
0.136526
0.136377
0.136219
0.136056
0.135889
0.135719
0.135545
0.135369
0.135191
0.135012
0.134831
0.134654
0.134483
0.13432
0.134163
0.134014
0.133873
0.133741
0.133616
0.133498
0.133388
0.133284
0.133186
0.133093
0.133006
0.132923
0.132846
0.132772
0.132703
0.132639
0.132575
0.137706
0.137716
0.1377
0.137662
0.137606
0.137534
0.137448
0.137351
0.137245
0.137129
0.137007
0.136877
0.136742
0.136604
0.136462
0.136318
0.136172
0.136024
0.135875
0.135724
0.135573
0.135425
0.135283
0.135147
0.135018
0.134896
0.13478
0.134672
0.134571
0.134476
0.134386
0.134302
0.134222
0.134147
0.134076
0.134009
0.133947
0.133889
0.133834
0.133783
0.133733
0.138026
0.138035
0.138021
0.137987
0.137937
0.137874
0.137799
0.137715
0.137622
0.137522
0.137416
0.137304
0.137188
0.137069
0.136948
0.136824
0.136699
0.136572
0.136446
0.136319
0.136193
0.13607
0.135952
0.135839
0.135732
0.135631
0.135536
0.135447
0.135363
0.135285
0.135211
0.135141
0.135076
0.135014
0.134956
0.134903
0.134852
0.134805
0.134761
0.13472
0.134681
0.138305
0.138313
0.1383
0.13827
0.138226
0.13817
0.138104
0.138029
0.137948
0.137861
0.137768
0.13767
0.13757
0.137468
0.137363
0.137256
0.137149
0.137042
0.136934
0.136827
0.136721
0.136618
0.136518
0.136424
0.136335
0.136251
0.136172
0.136098
0.136028
0.135962
0.1359
0.135842
0.135788
0.135737
0.13569
0.135646
0.135605
0.135566
0.13553
0.135498
0.135467
0.13855
0.138556
0.138545
0.138518
0.138479
0.138429
0.138371
0.138305
0.138232
0.138155
0.138074
0.137989
0.137902
0.137813
0.137722
0.13763
0.137538
0.137446
0.137354
0.137262
0.137171
0.137083
0.136999
0.136919
0.136845
0.136774
0.136708
0.136645
0.136586
0.136531
0.136479
0.136431
0.136386
0.136344
0.136305
0.136268
0.136234
0.136203
0.136174
0.136147
0.136123
0.138765
0.13877
0.13876
0.138736
0.138702
0.138657
0.138605
0.138547
0.138483
0.138415
0.138343
0.138268
0.138191
0.138113
0.138033
0.137954
0.137874
0.137794
0.137715
0.137636
0.137559
0.137484
0.137413
0.137346
0.137282
0.137222
0.137166
0.137112
0.137062
0.137016
0.136972
0.136931
0.136894
0.136858
0.136826
0.136795
0.136768
0.136742
0.136718
0.136696
0.136676
0.138955
0.13896
0.138951
0.13893
0.138899
0.13886
0.138814
0.138762
0.138705
0.138645
0.138581
0.138515
0.138447
0.138378
0.138308
0.138238
0.138168
0.138098
0.13803
0.137962
0.137896
0.137832
0.137771
0.137713
0.137659
0.137607
0.137559
0.137513
0.137471
0.137431
0.137394
0.13736
0.137328
0.137299
0.137271
0.137246
0.137223
0.137201
0.137182
0.137164
0.137148
0.139124
0.139128
0.13912
0.139101
0.139074
0.13904
0.138999
0.138953
0.138903
0.138849
0.138793
0.138734
0.138674
0.138613
0.138552
0.13849
0.138429
0.138368
0.138308
0.138249
0.138192
0.138136
0.138084
0.138034
0.137987
0.137943
0.137901
0.137862
0.137826
0.137792
0.137761
0.137732
0.137705
0.13768
0.137657
0.137636
0.137617
0.137599
0.137583
0.137568
0.137556
0.139274
0.139277
0.13927
0.139254
0.139231
0.1392
0.139165
0.139125
0.13908
0.139033
0.138983
0.138931
0.138878
0.138824
0.13877
0.138716
0.138662
0.138608
0.138556
0.138504
0.138454
0.138406
0.138361
0.138318
0.138277
0.138239
0.138204
0.13817
0.138139
0.13811
0.138084
0.138059
0.138036
0.138015
0.137996
0.137978
0.137962
0.137948
0.137934
0.137922
0.137912
0.139408
0.139411
0.139405
0.139391
0.139371
0.139345
0.139314
0.139279
0.13924
0.139198
0.139154
0.139109
0.139062
0.139014
0.138966
0.138918
0.138871
0.138824
0.138778
0.138733
0.13869
0.138648
0.138608
0.138571
0.138536
0.138503
0.138472
0.138444
0.138417
0.138393
0.13837
0.138349
0.138329
0.138312
0.138295
0.138281
0.138267
0.138255
0.138244
0.138234
0.138226
0.139528
0.139531
0.139526
0.139515
0.139498
0.139475
0.139449
0.139418
0.139385
0.139348
0.139309
0.139269
0.139228
0.139186
0.139144
0.139102
0.13906
0.139019
0.138979
0.138939
0.138902
0.138865
0.138831
0.138799
0.138769
0.13874
0.138714
0.138689
0.138666
0.138645
0.138625
0.138608
0.138591
0.138576
0.138562
0.13855
0.138539
0.138529
0.138519
0.138511
0.138505
0.139635
0.139638
0.139634
0.139626
0.139612
0.139594
0.139571
0.139545
0.139516
0.139484
0.139451
0.139416
0.13938
0.139343
0.139306
0.139269
0.139233
0.139197
0.139162
0.139128
0.139095
0.139063
0.139034
0.139006
0.138979
0.138955
0.138932
0.138911
0.138891
0.138873
0.138856
0.138841
0.138827
0.138815
0.138803
0.138793
0.138783
0.138775
0.138767
0.13876
0.138755
0.139731
0.139734
0.139732
0.139726
0.139716
0.139701
0.139683
0.139661
0.139637
0.13961
0.139581
0.139551
0.13952
0.139489
0.139457
0.139425
0.139393
0.139362
0.139331
0.139302
0.139274
0.139246
0.139221
0.139197
0.139174
0.139153
0.139133
0.139115
0.139098
0.139083
0.139069
0.139056
0.139044
0.139033
0.139024
0.139015
0.139008
0.139001
0.138995
0.138989
0.138985
0.139817
0.13982
0.13982
0.139817
0.13981
0.139799
0.139785
0.139768
0.139748
0.139726
0.139703
0.139678
0.139652
0.139626
0.139599
0.139572
0.139545
0.139519
0.139493
0.139468
0.139444
0.139421
0.139399
0.139379
0.139359
0.139342
0.139325
0.13931
0.139296
0.139283
0.139272
0.139261
0.139252
0.139244
0.139236
0.13923
0.139225
0.13922
0.139216
0.139213
0.139212
0.139893
0.139896
0.139898
0.139898
0.139894
0.139887
0.139877
0.139865
0.139851
0.139835
0.139817
0.139798
0.139779
0.139758
0.139737
0.139716
0.139695
0.139673
0.139653
0.139633
0.139614
0.139596
0.139579
0.139563
0.139548
0.139535
0.139522
0.139511
0.139501
0.139492
0.139484
0.139478
0.139472
0.139468
0.139464
0.139462
0.139461
0.13946
0.13946
0.139461
0.139463
0.139955
0.139959
0.139962
0.139963
0.139961
0.139958
0.139953
0.139946
0.139938
0.139929
0.139918
0.139907
0.139895
0.139882
0.139869
0.139855
0.139841
0.139828
0.139815
0.139802
0.13979
0.139779
0.139769
0.13976
0.139751
0.139743
0.139737
0.139731
0.139726
0.139722
0.139719
0.139716
0.139715
0.139714
0.139713
0.139713
0.139714
0.139715
0.139717
0.139719
0.139722
0.139993
0.139996
0.139997
0.139998
0.139997
0.139996
0.139994
0.139991
0.139988
0.139984
0.139979
0.139974
0.139968
0.139962
0.139956
0.13995
0.139943
0.139937
0.139931
0.139925
0.139919
0.139914
0.139909
0.139904
0.1399
0.139897
0.139893
0.139891
0.139888
0.139886
0.139884
0.139883
0.139882
0.139882
0.139882
0.139882
0.139882
0.139882
0.139883
0.139884
0.139885
0.140011
0.140013
0.140014
0.140015
0.140016
0.140015
0.140015
0.140014
0.140013
0.140011
0.140009
0.140007
0.140005
0.140002
0.139999
0.139996
0.139993
0.13999
0.139988
0.139985
0.139982
0.13998
0.139977
0.139975
0.139973
0.139971
0.13997
0.139969
0.139967
0.139966
0.139966
0.139965
0.139965
0.139964
0.139964
0.139964
0.139964
0.139965
0.139965
0.139966
0.139966
0.14002
0.140022
0.140023
0.140024
0.140025
0.140026
0.140026
0.140026
0.140026
0.140026
0.140026
0.140025
0.140025
0.140024
0.140023
0.140022
0.140021
0.14002
0.140019
0.140018
0.140017
0.140016
0.140015
0.140014
0.140013
0.140013
0.140012
0.140012
0.140011
0.140011
0.140011
0.140011
0.140011
0.140011
0.140011
0.140011
0.140011
0.140011
0.140012
0.140012
0.140013
0.140024
0.140025
0.140026
0.140027
0.140028
0.140029
0.14003
0.140031
0.140032
0.140033
0.140033
0.140034
0.140034
0.140035
0.140035
0.140035
0.140035
0.140035
0.140035
0.140035
0.140035
0.140035
0.140035
0.140035
0.140035
0.140035
0.140036
0.140036
0.140036
0.140036
0.140036
0.140036
0.140036
0.140037
0.140037
0.140037
0.140038
0.140038
0.140038
0.140038
0.140039
0.140023
0.140024
0.140025
0.140026
0.140028
0.140029
0.14003
0.140031
0.140032
0.140034
0.140035
0.140036
0.140036
0.140037
0.140038
0.140039
0.14004
0.14004
0.140041
0.140042
0.140042
0.140043
0.140043
0.140044
0.140045
0.140045
0.140046
0.140046
0.140047
0.140047
0.140047
0.140048
0.140048
0.140049
0.140049
0.140049
0.14005
0.14005
0.140051
0.140051
0.140051
0.14002
0.140021
0.140021
0.140022
0.140023
0.140025
0.140026
0.140027
0.140028
0.140029
0.14003
0.140031
0.140032
0.140033
0.140034
0.140035
0.140036
0.140036
0.140037
0.140038
0.140039
0.140039
0.14004
0.140041
0.140041
0.140042
0.140043
0.140043
0.140044
0.140045
0.140045
0.140046
0.140046
0.140046
0.140047
0.140047
0.140048
0.140048
0.140048
0.140048
0.140049
0.140014
0.140014
0.140015
0.140015
0.140016
0.140017
0.140018
0.140019
0.14002
0.14002
0.140021
0.140022
0.140022
0.140023
0.140023
0.140023
0.140023
0.140023
0.140023
0.140022
0.140021
0.14002
0.140019
0.140019
0.140018
0.140018
0.140018
0.140018
0.140018
0.140018
0.140018
0.140018
0.140019
0.140019
0.140019
0.140019
0.140019
0.14002
0.14002
0.14002
0.14002
0.140005
0.140005
0.140005
0.140006
0.140006
0.140006
0.140007
0.140007
0.140007
0.140008
0.140008
0.140008
0.140008
0.140008
0.140007
0.140006
0.140005
0.140003
0.14
0.139993
0.139985
0.139976
0.139968
0.13996
0.139953
0.139947
0.139941
0.139936
0.139931
0.139926
0.139922
0.139919
0.139916
0.139913
0.13991
0.139908
0.139906
0.139904
0.139902
0.1399
0.139899
0.00301976
0.00463112
0.00606923
0.00739832
0.00863492
0.00980173
0.0109192
0.011999
0.0130476
0.0140709
0.0150751
0.0160652
0.017049
0.0180355
0.0190318
0.0200431
0.021073
0.0221248
0.0232016
0.0243055
0.0254397
0.0266083
0.0278146
0.029061
0.0303483
0.031677
0.0330463
0.0344562
0.035907
0.0373986
0.0389305
0.0405012
0.0421088
0.0437512
0.0454266
0.0471337
0.0488705
0.0506351
0.052425
0.0542377
0.0560709
0.0579224
0.0597902
0.061672
0.0635654
0.065468
0.0673775
0.0692918
0.0712088
0.0731262
0.075042
0.0769539
0.07886
0.080758
0.0826462
0.0845226
0.0863853
0.0882323
0.090062
0.0918725
0.0936622
0.0954294
0.0971725
0.0988899
0.10058
0.102242
0.103874
0.105476
0.107044
0.108583
0.110077
0.111586
0.112836
0.115053
0.00445742
0.00606168
0.00758065
0.00891059
0.0101036
0.011223
0.0122922
0.0133192
0.0143104
0.0152726
0.0162128
0.0171356
0.0180516
0.018971
0.0198999
0.020842
0.0218002
0.0227773
0.0237765
0.0247998
0.0258515
0.0269372
0.0280609
0.0292247
0.0304295
0.0316758
0.0329629
0.0342916
0.0356631
0.037078
0.0385356
0.0400347
0.0415729
0.0431482
0.0447595
0.0464055
0.0480845
0.0497943
0.0515322
0.0532956
0.0550824
0.0568905
0.0587176
0.0605615
0.0624197
0.0642896
0.066169
0.0680557
0.0699476
0.0718424
0.0737379
0.0756318
0.0775221
0.0794068
0.0812838
0.0831511
0.0850069
0.0868493
0.0886763
0.0904862
0.0922773
0.0940479
0.0957963
0.0975211
0.0992206
0.100893
0.102538
0.104154
0.10574
0.107296
0.10881
0.110342
0.111612
0.11387
0.00690117
0.00838882
0.00971671
0.0108806
0.011966
0.0130178
0.0140244
0.0149861
0.0159101
0.0168038
0.0176746
0.018525
0.0193719
0.0202245
0.0210856
0.0219567
0.0228398
0.0237373
0.0246526
0.0255871
0.026548
0.0275422
0.0285738
0.0296442
0.0307542
0.0319046
0.0330946
0.0343267
0.0356037
0.0369267
0.0382948
0.0397067
0.0411599
0.0426528
0.0441852
0.0457561
0.0473638
0.0490059
0.0506794
0.0523819
0.0541112
0.0558654
0.0576423
0.0594394
0.061254
0.0630835
0.0649256
0.066778
0.0686387
0.0705053
0.0723754
0.0742467
0.076117
0.0779843
0.0798466
0.0817018
0.0835479
0.085383
0.087205
0.0890123
0.0908031
0.0925756
0.0943281
0.096059
0.0977667
0.0994498
0.101107
0.102737
0.104338
0.105913
0.107446
0.109001
0.110291
0.112589
0.00954139
0.0109758
0.0122971
0.0134519
0.0144769
0.0154265
0.0163263
0.0171873
0.0180172
0.0188217
0.0196063
0.02037
0.0211439
0.0219277
0.0227171
0.023512
0.0243138
0.0251247
0.0259481
0.0267842
0.0276462
0.0285416
0.0294721
0.030438
0.0314398
0.0324786
0.0335537
0.0346714
0.0358363
0.037049
0.0383085
0.0396134
0.0409607
0.0423506
0.0437841
0.0452608
0.0467788
0.0483352
0.0499268
0.0515513
0.0532072
0.0548928
0.0566056
0.0583429
0.0601017
0.0618792
0.0636733
0.0654817
0.0673023
0.0691324
0.0709695
0.072811
0.074655
0.0764992
0.0783415
0.0801799
0.082012
0.083836
0.0856497
0.0874514
0.0892391
0.0910112
0.0927658
0.0945011
0.0962156
0.0979077
0.099576
0.101219
0.102836
0.104428
0.10598
0.107557
0.108867
0.111206
0.0124394
0.0137205
0.0149723
0.0161187
0.0171538
0.0181039
0.0189903
0.0198275
0.0206262
0.0213944
0.0221382
0.0228599
0.0235707
0.0242779
0.024984
0.0256904
0.0263987
0.0271111
0.0278305
0.0285556
0.029313
0.0301038
0.0309242
0.0317732
0.0326515
0.033561
0.0345005
0.0354851
0.0365188
0.0376003
0.0387277
0.0399004
0.0411144
0.0423744
0.0436834
0.0450407
0.0464435
0.047889
0.0493735
0.0508959
0.0524555
0.0540509
0.0556793
0.0573374
0.0590218
0.06073
0.06246
0.0642097
0.0659766
0.0677575
0.0695498
0.0713508
0.0731585
0.0749706
0.076785
0.0785991
0.0804107
0.0822174
0.0840174
0.0858087
0.0875893
0.0893572
0.0911105
0.0928475
0.0945663
0.0962655
0.0979433
0.0995987
0.10123
0.102838
0.104409
0.106008
0.107337
0.109716
0.0155458
0.016656
0.0177807
0.0188553
0.019864
0.0208156
0.0217177
0.0225758
0.0233954
0.0241821
0.0249404
0.0256734
0.0263859
0.0270828
0.027768
0.0284443
0.0291138
0.0297784
0.0304403
0.0311001
0.0317677
0.0324499
0.0331494
0.0338675
0.0346057
0.0353664
0.0361482
0.0369857
0.0378706
0.0387982
0.0397668
0.0407771
0.0418237
0.0429223
0.044076
0.0452818
0.0465361
0.047836
0.0491781
0.0505643
0.0519957
0.0534702
0.0549845
0.0565344
0.0581165
0.0597292
0.0613708
0.0630392
0.0647312
0.0664433
0.0681722
0.0699156
0.0716714
0.0734374
0.0752108
0.0769888
0.0787689
0.0805487
0.0823262
0.0840992
0.0858656
0.0876232
0.0893699
0.0911036
0.0928227
0.0945253
0.0962097
0.0978746
0.0995177
0.101141
0.102729
0.104348
0.105696
0.108115
0.0188166
0.0197812
0.0207783
0.0217543
0.0226957
0.0236084
0.0244971
0.0253622
0.0262038
0.0270224
0.0278188
0.0285934
0.0293473
0.0300821
0.0307998
0.0315019
0.03219
0.0328655
0.0335297
0.0341836
0.0348299
0.0354733
0.0361174
0.036765
0.0374183
0.0380801
0.0387505
0.0394434
0.0401648
0.0409163
0.0416987
0.0425146
0.0433555
0.0442655
0.0452328
0.0462504
0.0473153
0.0484255
0.0495789
0.0507858
0.0520471
0.0533591
0.0547173
0.0561169
0.0575556
0.059034
0.0605511
0.0621041
0.063689
0.0653011
0.0669374
0.0685962
0.0702755
0.0719726
0.0736842
0.0754068
0.0771375
0.0788741
0.0806144
0.0823561
0.0840965
0.0858331
0.0875635
0.0892856
0.0909975
0.0926972
0.0943827
0.0960523
0.0977037
0.0993389
0.100941
0.102579
0.103944
0.1064
0.0222873
0.023144
0.0240416
0.0249321
0.0258022
0.0266569
0.0275021
0.02834
0.0291707
0.0299938
0.0308084
0.0316128
0.0324058
0.0331861
0.0339529
0.0347056
0.0354437
0.0361672
0.0368758
0.0375696
0.0382489
0.038915
0.0395694
0.040214
0.0408506
0.0414814
0.0421073
0.0427332
0.0433648
0.0440063
0.0446606
0.0453314
0.0460167
0.0467331
0.0474872
0.0482803
0.0491127
0.0499846
0.0508975
0.051881
0.0529258
0.0540241
0.0551717
0.0563641
0.0576033
0.0588949
0.0602376
0.0616262
0.0630558
0.0645205
0.0660193
0.067552
0.0691166
0.0707091
0.0723252
0.0739605
0.0756125
0.0772792
0.0789581
0.0806464
0.0823407
0.0840378
0.0857352
0.0874309
0.0891225
0.0908077
0.0924841
0.0941495
0.0958014
0.0974415
0.0990528
0.100704
0.102083
0.104572
0.0261342
0.026918
0.0277475
0.0285768
0.0293921
0.030195
0.0309914
0.0317848
0.0325775
0.0333709
0.0341654
0.0349606
0.0357553
0.036548
0.037337
0.0381204
0.0388964
0.0396631
0.0404191
0.0411626
0.0418923
0.0426074
0.0433071
0.0439915
0.0446605
0.0453145
0.045954
0.0465803
0.0471959
0.0478037
0.0484064
0.0490073
0.0496074
0.0502126
0.0508296
0.0514635
0.0521178
0.0527953
0.0534979
0.0542392
0.0550251
0.0558564
0.0567328
0.0576514
0.0586272
0.0596738
0.0607812
0.0619415
0.0631499
0.0643994
0.0656976
0.0670458
0.0684399
0.0698739
0.071342
0.0728398
0.0743663
0.0759204
0.0774987
0.0790973
0.0807114
0.0823375
0.0839733
0.0856168
0.0872651
0.0889152
0.0905637
0.0922083
0.0938459
0.0954783
0.0970876
0.0987428
0.100127
0.10264
0.030685
0.0314148
0.0321944
0.0329773
0.0337499
0.0345108
0.0352639
0.0360124
0.0367588
0.0375054
0.0382541
0.039006
0.0397616
0.040521
0.0412836
0.0420485
0.0428143
0.0435794
0.0443419
0.0450999
0.0458513
0.0465941
0.0473262
0.0480461
0.0487521
0.0494432
0.050118
0.050776
0.051417
0.0520413
0.05265
0.0532444
0.0538257
0.054396
0.0549586
0.0555174
0.0560761
0.0566382
0.0572064
0.0577869
0.0583863
0.0590097
0.0596607
0.0603406
0.061056
0.0618177
0.0626292
0.0634899
0.064399
0.0653497
0.0663752
0.067469
0.0686201
0.069821
0.0710656
0.072352
0.0736852
0.0750637
0.0764817
0.0779334
0.079412
0.0809154
0.0824428
0.0839915
0.0855576
0.0871365
0.0887241
0.0903178
0.0919145
0.0935154
0.0951018
0.0967422
0.098118
0.100633
0.0363276
0.0369978
0.0377239
0.0384578
0.0391861
0.039905
0.0406156
0.0413194
0.0420179
0.0427129
0.0434062
0.0440993
0.0447934
0.0454895
0.0461883
0.0468902
0.0475954
0.0483036
0.0490143
0.0497267
0.0504395
0.0511515
0.0518609
0.052566
0.053265
0.053956
0.0546372
0.0553067
0.0559631
0.0566047
0.0572307
0.0578401
0.0584327
0.0590085
0.0595681
0.0601127
0.060644
0.0611642
0.0616752
0.0621801
0.0626827
0.0631873
0.0636982
0.0642186
0.0647525
0.0653066
0.0658869
0.0664976
0.0671422
0.0678194
0.068542
0.0693173
0.0701457
0.0710253
0.071952
0.0729352
0.0739941
0.0751167
0.0762922
0.0775143
0.078774
0.080078
0.0814268
0.0828154
0.0842373
0.0856856
0.0871565
0.0886485
0.0901586
0.0916867
0.0932127
0.0948034
0.0961425
0.0986195
0.0433715
0.0439568
0.0446101
0.0452796
0.0459502
0.0466152
0.0472728
0.0479231
0.0485664
0.0492032
0.0498345
0.0504608
0.0510833
0.0517026
0.0523199
0.052936
0.0535517
0.0541677
0.0547848
0.0554032
0.0560234
0.0566452
0.0572686
0.0578932
0.0585182
0.0591427
0.0597656
0.0603856
0.0610011
0.0616105
0.0622122
0.0628047
0.0633862
0.0639552
0.0645107
0.0650517
0.0655777
0.0660887
0.0665849
0.067067
0.0675362
0.0679943
0.0684436
0.0688866
0.0693259
0.0697651
0.0702083
0.0706601
0.0711246
0.0716043
0.0721047
0.0726325
0.0731929
0.0737894
0.074423
0.0750974
0.0758239
0.0766063
0.0774428
0.0783315
0.0792626
0.0802748
0.0813571
0.0824964
0.0836844
0.0849122
0.0861815
0.0874946
0.0888468
0.0902356
0.0916384
0.0931191
0.0943733
0.0967402
0.0520452
0.052513
0.0530592
0.0536259
0.054198
0.0547716
0.0553454
0.0559175
0.0564851
0.057046
0.057599
0.0581439
0.0586812
0.0592115
0.0597356
0.0602541
0.0607677
0.061277
0.0617829
0.0622862
0.0627878
0.0632884
0.0637891
0.0642903
0.0647927
0.0652967
0.0658026
0.0663102
0.0668194
0.0673298
0.0678407
0.0683511
0.0688599
0.069366
0.0698678
0.0703637
0.0708524
0.0713324
0.0718024
0.0722614
0.0727086
0.0731436
0.0735664
0.0739773
0.0743769
0.0747665
0.0751476
0.0755226
0.075894
0.0762643
0.0766365
0.0770145
0.0774029
0.0778059
0.0782271
0.0786696
0.0791395
0.0796429
0.0801838
0.0807653
0.0813845
0.0820552
0.0827841
0.0835705
0.0844119
0.0853005
0.0862611
0.087298
0.0883966
0.0895498
0.0907336
0.0920114
0.0931072
0.0952485
0.0629645
0.0631245
0.0633523
0.0636159
0.0639527
0.0643593
0.064802
0.0652543
0.0657026
0.0661447
0.0665819
0.0670147
0.0674429
0.0678654
0.0682814
0.0686902
0.0690917
0.0694864
0.0698749
0.070258
0.0706364
0.0710109
0.0713821
0.0717509
0.0721179
0.0724841
0.0728503
0.0732173
0.0735858
0.0739567
0.0743303
0.0747071
0.0750872
0.0754706
0.0758569
0.0762457
0.0766362
0.0770276
0.0774185
0.0778078
0.0781941
0.0785759
0.0789521
0.0793214
0.0796828
0.0800356
0.0803794
0.080714
0.0810398
0.0813573
0.0816675
0.0819719
0.0822725
0.0825718
0.0828724
0.0831769
0.0834888
0.0838122
0.0841515
0.0845109
0.0848925
0.0853014
0.0857444
0.0862266
0.0867513
0.0873172
0.0879332
0.0886088
0.0893447
0.0901413
0.0909789
0.0919349
0.0927812
0.0945359
0.0752405
0.075243
0.0752973
0.0753652
0.0754436
0.0755354
0.0756437
0.0757694
0.0759309
0.0761597
0.0764352
0.0767306
0.0770294
0.0773233
0.0776102
0.0778915
0.0781689
0.0784429
0.0787133
0.0789798
0.0792416
0.0794984
0.0797502
0.0799971
0.0802397
0.0804787
0.0807148
0.0809489
0.0811816
0.0814139
0.0816465
0.0818802
0.0821159
0.0823543
0.0825962
0.0828423
0.0830929
0.0833484
0.0836091
0.0838747
0.084145
0.0844193
0.0846968
0.0849765
0.0852572
0.0855377
0.0858167
0.086093
0.0863656
0.0866333
0.0868955
0.0871516
0.0874014
0.087645
0.087883
0.0881162
0.0883459
0.0885737
0.0888019
0.0890333
0.0892702
0.0895156
0.0897736
0.0900484
0.0903448
0.0906654
0.0910145
0.0913989
0.0918239
0.0922955
0.0928046
0.0933976
0.0939195