/*--------------------------------*- C++ -*----------------------------------*\
| =========                 |                                                 |
| \\      /  F ield         | OpenFOAM: The Open Source CFD Toolbox           |
|  \\    /   O peration     | Version:  5.x                                   |
|   \\  /    A nd           | Web:      www.OpenFOAM.org                      |
|    \\/     M anipulation  |                                                 |
\*---------------------------------------------------------------------------*/
FoamFile
{
    version     2.0;
    format      ascii;
    class       volScalarField;
    location    "300";
    object      p;
}
// * * * * * * * * * * * * * * * * * * * * * * * * * * * * * * * * * * * * * //

dimensions      [0 2 -2 0 0 0 0];

internalField   nonuniform List<scalar> 
11040
(
-0.00605902
-386.707
-512.897
-480.42
-421.76
-374.63
-340.176
-310.602
-269.255
-226.122
-187.636
-153.686
-123.009
-95.0917
-70.1016
-48.1394
-27.243
-3.57928
20.6869
44.2329
67.1633
88.8032
108.656
127.258
145.081
162.214
177.303
190.513
202.761
214.349
225.346
235.861
246.021
255.952
265.739
275.466
285.136
295.125
304.842
316.56
323.666
155.871
-116.623
-286.722
-351.342
-358.9
-343.455
-321.94
-298.478
-263.788
-224.614
-187.597
-154.139
-123.652
-95.7522
-70.5977
-48.2913
-27.1964
-3.82527
20.2308
43.6994
66.5977
88.2105
108.062
126.665
144.451
161.515
176.643
189.941
202.253
213.888
224.927
235.478
245.668
255.623
265.431
275.175
284.855
294.864
304.548
316.491
323.016
231.185
10.6602
-177.267
-281.007
-314.149
-312.12
-297.891
-279.878
-252.552
-218.36
-183.714
-151.525
-121.885
-94.5146
-69.5629
-47.1841
-26.1456
-3.29102
20.4452
43.7682
66.5611
88.097
107.897
126.454
144.148
161.102
176.259
189.629
201.974
213.632
224.692
235.261
245.465
255.431
265.246
274.994
284.67
294.677
304.323
316.368
322.763
273.559
110.117
-56.8318
-178.267
-240.54
-261.822
-262.272
-253.452
-234.862
-207.462
-176.82
-146.882
-118.662
-92.203
-67.7171
-45.4308
-24.511
-2.233
21.0584
44.1324
66.7451
88.1397
107.837
126.307
143.875
160.681
175.836
189.264
201.639
213.315
224.395
234.98
245.195
255.168
264.983
274.726
284.384
294.365
303.954
315.926
322.185
297.201
178.436
44.7796
-74.5062
-156.437
-200.309
-217.523
-219.723
-210.599
-191.298
-166.148
-139.517
-113.401
-88.3437
-64.6839
-42.7403
-22.0639
-0.470206
22.1855
44.86
67.1896
88.3626
107.894
126.225
143.623
160.233
175.345
188.823
201.227
212.918
224.011
234.606
244.824
254.792
264.594
274.31
283.926
293.833
303.321
314.997
320.952
309.543
222.698
120.874
17.1709
-69.2409
-128.25
-161.53
-176.605
-178.338
-168.5
-150.461
-128.503
-105.42
-82.4036
-60.0584
-38.8319
-18.6149
2.1774
24.0084
46.1077
68.026
88.8777
108.161
126.282
143.453
159.812
174.828
188.329
200.751
212.442
223.535
234.126
244.332
254.276
264.041
273.7
283.234
292.998
302.314
313.45
319.058
314.79
250.021
174.157
91.233
12.3435
-51.8782
-96.7427
-124.104
-137.237
-137.821
-128.4
-112.681
-93.8373
-73.7168
-53.3305
-33.3226
-13.8923
5.93645
26.7394
48.0477
69.3871
89.789
108.717
126.541
143.416
159.463
174.316
187.794
200.207
211.876
222.945
233.511
243.679
253.571
263.263
272.818
282.213
291.745
300.792
311.161
316.448
315.778
266.403
209.828
146.337
80.7717
20.2647
-29.0147
-64.8967
-87.9793
-98.7896
-98.8041
-90.725
-77.5049
-61.3821
-43.7934
-25.6639
-7.49841
11.1129
30.662
50.9248
71.463
91.244
109.68
127.092
143.586
159.252
173.859
187.245
199.608
211.219
222.229
232.733
242.827
252.622
262.191
271.579
280.758
289.951
298.612
308.044
313.059
314.247
275.804
233.034
185.116
133.566
81.9458
34.9441
-4.00142
-33.5074
-52.6415
-61.5896
-61.7586
-55.2971
-44.3371
-30.5528
-15.1411
1.10458
18.1058
36.1202
55.0443
74.5096
93.4575
111.231
128.085
144.083
159.282
173.545
186.742
198.987
210.486
221.385
231.775
241.742
251.383
260.761
269.902
278.77
287.512
295.671
304.079
308.878
311.316
280.819
247.89
211.594
172.084
130.675
90.0191
52.9698
21.4867
-2.60592
-18.4245
-26.1202
-26.7221
-21.7439
-12.7149
-0.930957
12.6095
27.4453
43.5381
60.7734
78.8402
96.6915
113.595
129.717
145.077
159.699
173.5
186.388
198.414
209.723
220.439
230.644
240.412
249.824
258.928
267.731
276.19
284.38
291.945
299.337
303.948
307.709
283.128
257.309
229.468
199.332
167.146
134.102
101.965
72.3083
46.9841
27.3828
14.2082
7.45174
6.4638
10.2307
17.6536
27.7177
39.7411
53.4267
68.56
84.8393
101.264
117.038
132.218
146.768
160.676
173.882
186.319
198
209.011
219.446
229.374
238.853
247.946
256.684
265.056
273.013
280.582
287.502
293.972
298.371
303.9
283.826
263.251
241.562
218.415
193.661
167.704
141.438
115.812
92.203
71.9218
55.9945
45.0323
39.1311
37.9316
40.7762
46.8676
55.5148
66.2899
78.8759
92.9447
107.564
121.898
135.876
149.402
162.424
174.878
186.703
197.885
208.464
218.498
228.037
237.119
245.79
254.067
261.923
269.308
276.224
282.493
288.178
292.324
300.193
283.631
267.01
249.859
231.868
212.789
192.68
171.921
150.975
130.684
111.99
95.821
82.9765
73.961
68.9298
67.7118
69.8766
74.9156
82.4352
92.0972
103.561
115.993
128.549
141.035
153.287
165.209
176.72
187.747
198.253
208.239
217.729
226.747
235.314
243.456
251.178
258.446
265.213
271.476
277.122
282.159
286.036
296.767
282.999
269.429
255.69
241.53
226.703
211.144
194.983
178.398
161.841
145.883
131.179
118.422
108.21
100.949
96.8119
95.719
97.43
101.709
108.299
116.91
126.851
137.321
148.028
158.746
169.335
179.688
189.712
199.343
208.553
217.335
225.687
233.611
241.119
248.202
254.824
260.949
266.577
271.643
276.14
279.754
293.721
282.217
271.05
259.93
248.655
237.019
224.92
212.381
199.449
186.339
173.362
160.917
149.489
139.579
131.627
125.947
122.682
121.823
123.315
127.045
132.828
140.165
148.361
157.071
166.033
175.073
184.058
192.874
201.433
209.68
217.583
225.12
232.273
239.042
245.411
251.346
256.818
261.834
266.36
270.389
273.744
291.119
281.478
272.235
263.158
254.093
244.869
235.388
225.632
215.591
205.364
195.107
185.041
175.467
166.734
159.197
153.172
148.881
146.439
145.925
147.354
150.663
155.557
161.496
168.142
175.231
182.577
190.033
197.472
204.788
211.908
218.78
225.364
231.633
237.573
243.163
248.374
253.181
257.598
261.607
265.203
268.284
289.015
280.929
273.253
265.803
258.46
251.087
243.596
235.958
228.148
220.205
212.207
204.269
196.568
189.324
182.784
177.195
172.768
169.654
167.988
167.858
169.291
172.163
176.101
180.821
186.09
191.733
197.609
203.589
209.564
215.452
221.189
226.727
232.029
237.074
241.84
246.299
250.431
254.249
257.745
260.912
263.692
287.414
280.565
274.11
267.903
261.854
255.849
249.814
243.717
237.534
231.279
224.992
218.735
212.613
206.762
201.345
196.535
192.495
189.36
187.265
186.319
186.589
188.059
190.494
193.675
197.42
201.582
206.039
210.673
215.383
220.089
224.725
229.242
233.6
237.774
241.742
245.476
248.961
252.206
255.205
257.95
260.406
286.223
280.334
274.814
269.548
264.466
259.47
254.496
249.518
244.51
239.478
234.443
229.44
224.534
219.813
215.381
211.361
207.869
205.012
202.901
201.638
201.297
201.912
203.341
205.426
208.032
211.043
214.359
217.883
221.527
225.218
228.897
232.518
236.041
239.442
242.698
245.786
248.69
251.417
253.96
256.312
258.448
285.34
280.217
275.432
270.899
266.56
262.33
258.154
254.008
249.87
245.742
241.635
237.57
233.59
229.752
226.128
222.801
219.855
217.369
215.428
214.116
213.5
213.632
214.424
215.766
217.559
219.717
222.16
224.812
227.601
230.463
233.35
236.219
239.036
241.777
244.422
246.95
249.347
251.616
253.752
255.745
257.576
284.683
280.182
275.992
272.045
268.294
264.664
261.107
257.603
254.131
250.691
247.289
243.94
240.672
237.524
234.547
231.798
229.337
227.221
225.514
224.281
223.577
223.453
223.856
224.706
225.934
227.474
229.268
231.253
233.374
235.579
237.828
240.084
242.318
244.51
246.642
248.695
250.658
252.53
254.306
255.979
257.531
284.192
280.208
276.508
273.04
269.765
266.616
263.553
260.554
257.604
254.701
251.848
249.054
246.341
243.735
241.273
238.995
236.944
235.162
233.695
232.592
231.896
231.652
231.824
232.357
233.197
234.299
235.616
237.102
238.712
240.407
242.152
243.919
245.683
247.428
249.137
250.795
252.392
253.927
255.394
256.786
258.089
283.826
280.277
276.987
273.917
271.034
268.279
265.615
263.024
260.491
258.015
255.597
253.243
250.968
248.793
246.742
244.846
243.136
241.641
240.395
239.434
238.791
238.503
238.543
238.871
239.449
240.241
241.212
242.328
243.553
244.856
246.211
247.593
248.984
250.37
251.736
253.071
254.365
255.618
256.824
257.975
259.061
283.555
280.375
277.432
274.697
272.142
269.714
267.379
265.122
262.93
260.799
258.731
256.73
254.806
252.975
251.256
249.669
248.239
246.985
245.932
245.108
244.535
244.244
244.213
244.411
244.811
245.385
246.107
246.95
247.886
248.891
249.945
251.029
252.127
253.227
254.319
255.393
256.44
257.46
258.447
259.396
260.296
283.355
280.492
277.846
275.396
273.119
270.965
268.905
266.925
265.014
263.167
261.385
259.671
258.032
256.48
255.029
253.695
252.493
251.44
250.553
249.851
249.351
249.077
249.011
249.128
249.407
249.828
250.369
251.011
251.731
252.512
253.335
254.188
255.056
255.932
256.806
257.67
258.517
259.347
260.154
260.934
261.679
283.21
280.621
278.231
276.026
273.985
272.065
270.237
268.49
266.812
265.201
263.656
262.178
260.773
259.449
258.218
257.089
256.076
255.189
254.441
253.846
253.416
253.168
253.087
253.153
253.351
253.663
254.074
254.567
255.125
255.735
256.383
257.057
257.747
258.447
259.148
259.844
260.531
261.207
261.867
262.508
263.123
283.108
280.757
278.589
276.595
274.758
273.037
271.407
269.857
268.377
266.964
265.616
264.334
263.123
261.988
260.937
259.978
259.12
258.371
257.74
257.237
256.869
256.65
256.566
256.601
256.743
256.977
257.293
257.676
258.113
258.593
259.106
259.642
260.193
260.755
261.319
261.883
262.441
262.992
263.533
264.06
264.567
283.038
280.895
278.92
277.11
275.449
273.9
272.44
271.059
269.747
268.501
267.32
266.203
265.153
264.175
263.274
262.456
261.727
261.093
260.559
260.133
259.82
259.63
259.549
259.566
259.669
259.848
260.093
260.393
260.739
261.12
261.529
261.958
262.401
262.854
263.311
263.769
264.224
264.675
265.118
265.553
265.972
282.993
281.032
279.227
277.578
276.07
274.67
273.357
272.12
270.952
269.849
268.809
267.832
266.918
266.072
265.296
264.595
263.974
263.435
262.983
262.623
262.357
262.193
262.12
262.125
262.202
262.34
262.533
262.771
263.047
263.352
263.68
264.026
264.385
264.752
265.124
265.497
265.869
266.24
266.605
266.964
267.311
282.967
281.167
279.511
278.002
276.629
275.358
274.172
273.061
272.017
271.037
270.118
269.259
268.461
267.726
267.056
266.453
265.922
265.463
265.08
264.774
264.549
264.41
264.344
264.343
264.401
264.511
264.664
264.855
265.076
265.323
265.589
265.869
266.161
266.461
266.765
267.071
267.376
267.681
267.983
268.28
268.568
282.956
281.297
279.773
278.388
277.131
275.974
274.899
273.897
272.961
272.087
271.272
270.514
269.815
269.174
268.594
268.075
267.619
267.228
266.902
266.643
266.453
266.334
266.277
266.274
266.318
266.406
266.529
266.684
266.863
267.064
267.281
267.51
267.749
267.994
268.244
268.496
268.748
269
269.25
269.497
269.736
282.956
281.421
280.013
278.737
277.584
276.527
275.549
274.642
273.8
273.017
272.292
271.623
271.008
270.448
269.944
269.496
269.104
268.769
268.492
268.273
268.112
268.012
267.963
267.959
267.994
268.065
268.165
268.292
268.439
268.603
268.781
268.969
269.166
269.368
269.574
269.783
269.992
270.201
270.408
270.614
270.814
282.964
281.539
280.233
279.054
277.992
277.022
276.129
275.306
274.545
273.844
273.197
272.603
272.062
271.572
271.133
270.745
270.408
270.121
269.885
269.7
269.564
269.48
269.438
269.434
269.463
269.521
269.604
269.708
269.829
269.965
270.112
270.268
270.43
270.598
270.769
270.941
271.115
271.289
271.462
271.634
271.8
282.977
281.65
280.435
279.34
278.358
277.465
276.647
275.898
275.209
274.578
274
273.472
272.994
272.564
272.181
271.845
271.555
271.31
271.109
270.952
270.838
270.768
270.733
270.729
270.754
270.802
270.871
270.957
271.058
271.171
271.293
271.422
271.557
271.697
271.839
271.983
272.128
272.273
272.417
272.561
272.7
282.995
281.753
280.618
279.598
278.686
277.861
277.11
276.425
275.8
275.23
274.712
274.243
273.82
273.442
273.108
272.817
272.567
272.357
272.186
272.054
271.958
271.9
271.872
271.869
271.89
271.93
271.988
272.061
272.145
272.239
272.341
272.449
272.562
272.678
272.797
272.917
273.038
273.159
273.28
273.401
273.517
283.015
281.848
280.783
279.829
278.98
278.215
277.522
276.894
276.325
275.81
275.345
274.926
274.552
274.22
273.928
273.676
273.461
273.281
273.136
273.025
272.945
272.897
272.874
272.873
272.891
272.926
272.976
273.037
273.108
273.187
273.272
273.363
273.457
273.554
273.654
273.755
273.856
273.958
274.059
274.16
274.258
283.036
281.935
280.932
280.036
279.241
278.528
277.887
277.31
276.791
276.324
275.905
275.532
275.2
274.908
274.654
274.435
274.25
274.097
273.974
273.881
273.815
273.776
273.758
273.758
273.775
273.805
273.847
273.899
273.959
274.026
274.098
274.174
274.253
274.335
274.418
274.503
274.588
274.673
274.758
274.843
274.925
283.057
282.014
281.064
280.218
279.471
278.805
278.209
277.677
277.202
276.777
276.4
276.066
275.773
275.516
275.294
275.105
274.946
274.817
274.713
274.636
274.581
274.55
274.537
274.539
274.554
274.581
274.618
274.663
274.714
274.771
274.832
274.896
274.963
275.032
275.102
275.173
275.244
275.316
275.388
275.459
275.528
283.079
282.084
281.18
280.378
279.673
279.047
278.492
277.999
277.562
277.176
276.836
276.537
276.277
276.051
275.859
275.696
275.56
275.45
275.364
275.3
275.256
275.232
275.223
275.226
275.241
275.265
275.297
275.336
275.38
275.428
275.48
275.534
275.591
275.649
275.708
275.767
275.827
275.888
275.948
276.007
276.065
283.099
282.145
281.281
280.516
279.846
279.256
278.736
278.278
277.876
277.524
277.216
276.949
276.719
276.521
276.354
276.214
276.099
276.007
275.936
275.884
275.85
275.833
275.827
275.832
275.847
275.869
275.898
275.932
275.97
276.012
276.057
276.103
276.151
276.201
276.251
276.301
276.352
276.403
276.453
276.503
276.552
283.117
282.198
281.367
280.633
279.994
279.434
278.945
278.517
278.146
277.824
277.545
277.306
277.103
276.93
276.786
276.667
276.57
276.494
276.436
276.395
276.369
276.357
276.355
276.361
276.375
276.396
276.422
276.452
276.485
276.521
276.559
276.599
276.64
276.681
276.723
276.766
276.808
276.851
276.893
276.935
276.976
283.133
282.241
281.437
280.729
280.115
279.582
279.119
278.718
278.374
278.078
277.826
277.613
277.433
277.283
277.159
277.059
276.979
276.917
276.872
276.841
276.823
276.817
276.819
276.828
276.844
276.864
276.888
276.916
276.946
276.978
277.012
277.047
277.082
277.118
277.154
277.191
277.227
277.263
277.299
277.334
277.368
283.147
282.275
281.491
280.804
280.211
279.699
279.258
278.882
278.561
278.29
278.061
277.87
277.712
277.582
277.477
277.394
277.329
277.28
277.245
277.223
277.211
277.209
277.213
277.223
277.238
277.258
277.28
277.305
277.331
277.359
277.388
277.418
277.449
277.479
277.51
277.541
277.571
277.601
277.631
277.661
277.689
283.158
282.299
281.53
280.858
280.28
279.786
279.364
279.008
278.708
278.458
278.251
278.08
277.942
277.831
277.743
277.676
277.626
277.59
277.567
277.555
277.552
277.557
277.568
277.583
277.601
277.622
277.646
277.67
277.696
277.723
277.75
277.777
277.805
277.832
277.859
277.886
277.912
277.938
277.964
277.989
278.013
283.167
282.316
281.556
280.895
280.329
279.847
279.44
279.1
278.818
278.586
278.397
278.245
278.125
278.031
277.959
277.905
277.867
277.841
277.825
277.819
277.82
277.827
277.838
277.853
277.87
277.89
277.911
277.934
277.958
277.981
278.006
278.03
278.054
278.078
278.101
278.124
278.147
278.169
278.19
278.211
278.231
283.172
282.322
281.566
280.911
280.352
279.881
279.486
279.159
278.892
278.676
278.503
278.367
278.263
278.185
278.129
278.091
278.068
278.058
278.058
278.065
278.079
278.098
278.119
278.142
278.166
278.191
278.217
278.242
278.267
278.292
278.316
278.339
278.362
278.384
278.405
278.426
278.445
278.465
278.483
278.501
278.518
283.171
282.308
281.545
280.887
280.33
279.864
279.48
279.166
278.913
278.713
278.556
278.437
278.347
278.282
278.238
278.209
278.194
278.188
278.19
278.199
278.213
278.231
278.251
278.273
278.297
278.321
278.346
278.371
278.395
278.419
278.442
278.464
278.486
278.506
278.526
278.545
278.563
278.58
278.596
278.612
278.627
283.164
282.279
281.501
280.832
280.27
279.804
279.425
279.12
278.879
278.692
278.552
278.45
278.38
278.337
278.315
278.311
278.321
278.341
278.369
278.401
278.437
278.475
278.512
278.548
278.583
278.616
278.646
278.674
278.701
278.726
278.75
278.772
278.793
278.812
278.831
278.848
278.864
278.879
278.893
278.907
278.919
359.772
331.034
315.07
313.625
311.211
307.285
304.161
301.853
299.861
298.08
296.53
295.185
294.002
292.955
292.027
291.203
290.467
289.81
289.222
288.695
288.221
287.795
287.411
287.066
286.754
286.472
286.217
285.987
285.779
285.59
285.419
285.264
285.124
284.996
284.88
284.775
284.679
284.591
284.512
284.439
284.373
284.312
284.256
284.204
284.157
284.113
284.073
284.035
284
283.967
283.936
283.907
283.879
283.852
283.826
283.801
283.777
283.753
283.729
283.705
283.681
283.656
283.631
283.606
283.58
283.552
283.524
283.494
283.462
283.43
283.393
283.364
283.303
283.333
356.902
330.809
315.02
313.439
311.026
307.115
304.01
301.715
299.73
297.956
296.413
295.074
293.896
292.855
291.932
291.112
290.382
289.729
289.145
288.621
288.151
287.729
287.349
287.006
286.697
286.419
286.167
285.939
285.733
285.547
285.378
285.225
285.087
284.961
284.847
284.743
284.649
284.563
284.485
284.413
284.348
284.288
284.234
284.183
284.137
284.094
284.055
284.018
283.984
283.952
283.921
283.893
283.865
283.839
283.814
283.789
283.765
283.742
283.718
283.695
283.671
283.647
283.623
283.597
283.571
283.544
283.516
283.487
283.455
283.424
283.386
283.357
283.296
283.328
353.3
330.574
314.977
313.167
310.811
306.928
303.835
301.554
299.58
297.814
296.279
294.947
293.777
292.742
291.825
291.01
290.285
289.637
289.058
288.539
288.073
287.655
287.278
286.94
286.634
286.359
286.11
285.885
285.682
285.499
285.333
285.182
285.046
284.922
284.81
284.708
284.616
284.531
284.455
284.385
284.321
284.263
284.209
284.16
284.115
284.073
284.035
283.999
283.966
283.934
283.905
283.877
283.85
283.825
283.8
283.776
283.753
283.73
283.707
283.684
283.661
283.637
283.613
283.588
283.563
283.536
283.508
283.479
283.448
283.416
283.379
283.35
283.288
283.323
348.855
329.948
314.9
312.794
310.537
306.71
303.628
301.364
299.405
297.65
296.125
294.802
293.639
292.612
291.702
290.894
290.175
289.533
288.959
288.446
287.985
287.571
287.199
286.865
286.563
286.292
286.046
285.825
285.626
285.445
285.282
285.134
285
284.879
284.769
284.669
284.579
284.497
284.422
284.354
284.291
284.235
284.183
284.135
284.091
284.051
284.013
283.978
283.946
283.916
283.887
283.86
283.834
283.81
283.786
283.762
283.74
283.717
283.695
283.672
283.65
283.627
283.603
283.579
283.553
283.527
283.5
283.471
283.44
283.408
283.371
283.342
283.28
283.317
343.646
328.75
314.74
312.266
310.138
306.429
303.366
301.124
299.189
297.451
295.938
294.628
293.476
292.459
291.558
290.758
290.047
289.413
288.846
288.339
287.884
287.476
287.11
286.78
286.483
286.216
285.975
285.758
285.562
285.385
285.225
285.08
284.949
284.831
284.724
284.627
284.538
284.458
284.386
284.319
284.259
284.204
284.153
284.107
284.065
284.026
283.99
283.956
283.925
283.895
283.868
283.842
283.817
283.793
283.77
283.747
283.725
283.703
283.682
283.66
283.638
283.615
283.592
283.568
283.543
283.518
283.49
283.462
283.431
283.4
283.363
283.334
283.271
283.311
337.849
326.78
314.333
311.504
309.528
306.03
303.015
300.807
298.911
297.199
295.707
294.414
293.278
292.274
291.386
290.598
289.897
289.272
288.714
288.215
287.768
287.367
287.007
286.683
286.392
286.13
285.895
285.682
285.49
285.317
285.161
285.02
284.893
284.778
284.673
284.579
284.493
284.416
284.345
284.281
284.223
284.17
284.121
284.077
284.036
283.998
283.964
283.932
283.902
283.873
283.847
283.822
283.798
283.775
283.753
283.731
283.71
283.689
283.668
283.646
283.625
283.603
283.581
283.557
283.533
283.507
283.481
283.453
283.422
283.391
283.355
283.326
283.262
283.304
331.592
323.892
313.467
310.421
308.599
305.42
302.513
300.361
298.529
296.864
295.405
294.14
293.028
292.045
291.174
290.401
289.714
289.102
288.556
288.067
287.63
287.238
286.886
286.57
286.286
286.031
285.802
285.595
285.408
285.24
285.089
284.952
284.829
284.718
284.617
284.526
284.443
284.369
284.301
284.239
284.183
284.132
284.086
284.043
284.004
283.969
283.935
283.905
283.876
283.849
283.824
283.8
283.777
283.755
283.734
283.714
283.693
283.673
283.653
283.632
283.611
283.59
283.568
283.545
283.522
283.497
283.47
283.443
283.413
283.382
283.346
283.317
283.253
283.296
324.977
320.046
311.925
308.92
307.249
304.484
301.777
299.719
297.983
296.397
294.993
293.773
292.699
291.747
290.903
290.154
289.487
288.893
288.362
287.888
287.464
287.084
286.743
286.437
286.162
285.915
285.693
285.493
285.314
285.152
285.006
284.875
284.756
284.649
284.553
284.466
284.387
284.316
284.251
284.193
284.139
284.091
284.047
284.007
283.97
283.936
283.904
283.875
283.848
283.823
283.799
283.777
283.755
283.734
283.714
283.695
283.675
283.656
283.636
283.617
283.597
283.576
283.555
283.533
283.51
283.485
283.459
283.432
283.403
283.372
283.336
283.307
283.243
283.288
318.095
315.314
309.525
306.879
305.391
303.107
300.711
298.807
297.206
295.737
294.42
293.267
292.251
291.348
290.544
289.83
289.193
288.625
288.118
287.664
287.258
286.894
286.568
286.275
286.013
285.777
285.565
285.374
285.203
285.048
284.91
284.785
284.672
284.571
284.48
284.397
284.323
284.256
284.195
284.14
284.09
284.045
284.003
283.966
283.931
283.899
283.87
283.843
283.818
283.794
283.772
283.751
283.731
283.711
283.692
283.674
283.656
283.637
283.619
283.6
283.581
283.561
283.541
283.519
283.497
283.473
283.448
283.421
283.392
283.362
283.326
283.297
283.233
283.278
311.044
309.857
306.186
304.179
302.961
301.196
299.218
297.548
296.129
294.822
293.63
292.576
291.642
290.808
290.063
289.399
288.806
288.276
287.801
287.377
286.996
286.655
286.349
286.075
285.828
285.607
285.408
285.23
285.069
284.925
284.795
284.679
284.574
284.479
284.394
284.318
284.249
284.187
284.131
284.08
284.034
283.992
283.954
283.919
283.888
283.859
283.832
283.807
283.784
283.763
283.742
283.723
283.704
283.686
283.669
283.652
283.634
283.617
283.6
283.582
283.564
283.545
283.525
283.505
283.483
283.46
283.435
283.409
283.38
283.351
283.315
283.286
283.222
283.267
303.929
303.882
301.957
300.749
299.921
298.693
297.213
295.867
294.689
293.591
292.571
291.652
290.83
290.091
289.426
288.83
288.296
287.818
287.389
287.004
286.658
286.349
286.07
285.821
285.597
285.395
285.215
285.052
284.906
284.775
284.657
284.551
284.456
284.371
284.294
284.225
284.162
284.106
284.056
284.01
283.969
283.932
283.898
283.867
283.839
283.813
283.789
283.767
283.747
283.727
283.709
283.692
283.675
283.659
283.643
283.627
283.611
283.595
283.579
283.563
283.546
283.528
283.509
283.489
283.468
283.446
283.422
283.396
283.368
283.339
283.304
283.275
283.212
283.255
296.851
297.595
296.996
296.604
296.266
295.586
294.646
293.702
292.829
291.992
291.191
290.449
289.774
289.159
288.6
288.095
287.639
287.228
286.858
286.525
286.226
285.957
285.715
285.498
285.303
285.128
284.971
284.83
284.703
284.589
284.487
284.395
284.313
284.239
284.173
284.113
284.059
284.011
283.968
283.929
283.894
283.862
283.833
283.806
283.783
283.761
283.74
283.722
283.704
283.688
283.672
283.657
283.642
283.628
283.614
283.6
283.586
283.572
283.557
283.542
283.526
283.509
283.491
283.472
283.452
283.431
283.408
283.383
283.355
283.326
283.292
283.263
283.202
283.241
289.895
291.178
291.528
291.854
292.046
291.909
291.513
291.021
290.509
289.98
289.444
288.924
288.435
287.977
287.553
287.163
286.807
286.482
286.188
285.922
285.682
285.465
285.27
285.094
284.936
284.794
284.667
284.553
284.451
284.359
284.277
284.203
284.137
284.078
284.025
283.977
283.935
283.897
283.863
283.832
283.804
283.779
283.756
283.736
283.717
283.7
283.684
283.669
283.655
283.642
283.63
283.618
283.606
283.594
283.582
283.57
283.558
283.545
283.532
283.519
283.504
283.489
283.472
283.454
283.435
283.415
283.392
283.368
283.341
283.313
283.279
283.25
283.191
283.224
283.161
284.798
285.797
286.691
287.376
287.748
287.868
287.839
287.722
287.538
287.305
287.045
286.778
286.512
286.254
286.007
285.774
285.558
285.359
285.176
285.009
284.857
284.719
284.595
284.484
284.383
284.293
284.212
284.14
284.076
284.018
283.967
283.921
283.881
283.844
283.812
283.784
283.758
283.735
283.715
283.697
283.68
283.666
283.652
283.64
283.629
283.618
283.608
283.599
283.59
283.581
283.573
283.564
283.555
283.546
283.537
283.527
283.516
283.505
283.493
283.48
283.466
283.451
283.435
283.417
283.398
283.376
283.353
283.327
283.299
283.266
283.236
283.181
283.205
276.804
278.65
280.066
281.362
282.448
283.256
283.83
284.236
284.514
284.687
284.776
284.804
284.789
284.744
284.679
284.602
284.519
284.433
284.349
284.267
284.19
284.117
284.051
283.99
283.934
283.884
283.839
283.8
283.764
283.733
283.705
283.681
283.66
283.642
283.626
283.613
283.601
283.591
283.582
283.574
283.568
283.562
283.557
283.552
283.548
283.544
283.54
283.537
283.533
283.529
283.525
283.521
283.516
283.51
283.505
283.498
283.491
283.483
283.474
283.464
283.454
283.442
283.428
283.413
283.397
283.379
283.358
283.336
283.311
283.284
283.252
283.222
283.171
283.184
271.04
272.97
274.619
276.16
277.522
278.658
279.593
280.365
280.997
281.507
281.913
282.232
282.482
282.676
282.826
282.94
283.027
283.092
283.142
283.18
283.209
283.231
283.249
283.263
283.276
283.286
283.296
283.305
283.314
283.323
283.331
283.34
283.349
283.357
283.366
283.374
283.383
283.391
283.399
283.407
283.414
283.421
283.428
283.434
283.439
283.444
283.449
283.452
283.455
283.458
283.459
283.46
283.46
283.459
283.457
283.454
283.45
283.446
283.44
283.432
283.424
283.414
283.402
283.389
283.375
283.358
283.339
283.318
283.294
283.268
283.237
283.207
283.161
283.16
266.144
268.043
269.769
271.408
272.912
274.248
275.427
276.465
277.375
278.164
278.845
279.43
279.931
280.36
280.726
281.04
281.308
281.538
281.737
281.908
282.058
282.189
282.304
282.406
282.498
282.579
282.653
282.72
282.781
282.837
282.889
282.936
282.98
283.02
283.058
283.093
283.125
283.155
283.183
283.209
283.233
283.255
283.275
283.294
283.311
283.326
283.34
283.353
283.364
283.374
283.382
283.389
283.395
283.399
283.402
283.403
283.404
283.402
283.4
283.396
283.39
283.383
283.374
283.363
283.35
283.335
283.318
283.298
283.275
283.25
283.22
283.19
283.15
283.134
262.549
264.32
265.993
267.603
269.121
270.524
271.813
272.995
274.071
275.043
275.919
276.702
277.402
278.025
278.579
279.069
279.505
279.891
280.234
280.538
280.81
281.052
281.269
281.464
281.639
281.797
281.94
282.07
282.188
282.296
282.395
282.485
282.567
282.643
282.713
282.777
282.836
282.891
282.941
282.987
283.029
283.068
283.104
283.137
283.167
283.194
283.219
283.241
283.261
283.279
283.295
283.309
283.321
283.332
283.34
283.346
283.351
283.354
283.355
283.355
283.352
283.348
283.342
283.333
283.323
283.31
283.295
283.277
283.255
283.231
283.203
283.173
283.137
283.107
260.293
261.881
263.42
264.919
266.36
267.729
269.023
270.24
271.379
272.438
273.418
274.32
275.148
275.904
276.593
277.218
277.786
278.3
278.765
279.186
279.566
279.91
280.221
280.503
280.759
280.991
281.202
281.395
281.57
281.73
281.877
282.011
282.133
282.246
282.349
282.443
282.53
282.61
282.684
282.751
282.813
282.87
282.922
282.969
283.013
283.053
283.089
283.122
283.152
283.178
283.202
283.224
283.243
283.259
283.273
283.285
283.295
283.302
283.308
283.311
283.312
283.311
283.307
283.302
283.294
283.283
283.27
283.253
283.234
283.211
283.184
283.154
283.122
283.081
259.145
260.525
261.889
263.231
264.541
265.812
267.038
268.215
269.339
270.406
271.416
272.365
273.254
274.084
274.854
275.568
276.227
276.835
277.393
277.905
278.374
278.804
279.197
279.556
279.885
280.185
280.46
280.711
280.942
281.152
281.345
281.522
281.685
281.834
281.971
282.096
282.211
282.317
282.414
282.504
282.586
282.661
282.73
282.793
282.851
282.903
282.952
282.995
283.035
283.071
283.104
283.133
283.159
283.182
283.203
283.22
283.235
283.247
283.257
283.264
283.269
283.271
283.271
283.268
283.263
283.254
283.243
283.229
283.211
283.189
283.164
283.134
283.105
283.055
258.849
260.019
261.191
262.358
263.512
264.649
265.764
266.852
267.909
268.93
269.913
270.853
271.75
272.601
273.405
274.163
274.874
275.538
276.158
276.735
277.27
277.765
278.224
278.647
279.037
279.397
279.728
280.033
280.313
280.571
280.809
281.027
281.228
281.412
281.582
281.738
281.881
282.013
282.135
282.246
282.348
282.442
282.529
282.608
282.68
282.747
282.807
282.862
282.913
282.959
283
283.037
283.071
283.101
283.128
283.151
283.171
283.188
283.203
283.214
283.223
283.229
283.232
283.232
283.229
283.224
283.215
283.202
283.186
283.166
283.142
283.114
283.086
283.031
259.186
260.158
261.143
262.133
263.124
264.112
265.095
266.068
267.026
267.966
268.883
269.774
270.637
271.469
272.266
273.029
273.755
274.443
275.094
275.707
276.284
276.824
277.328
277.799
278.237
278.645
279.023
279.373
279.697
279.997
280.275
280.531
280.767
280.986
281.187
281.373
281.544
281.701
281.846
281.98
282.103
282.216
282.319
282.415
282.502
282.582
282.656
282.723
282.784
282.84
282.891
282.937
282.978
283.015
283.049
283.078
283.104
283.127
283.146
283.162
283.174
283.184
283.191
283.194
283.194
283.191
283.185
283.174
283.16
283.142
283.119
283.091
283.064
283.007
259.967
260.762
261.574
262.398
263.232
264.073
264.919
265.765
266.609
267.447
268.276
269.093
269.894
270.676
271.436
272.173
272.884
273.567
274.222
274.846
275.439
276.002
276.533
277.034
277.505
277.947
278.36
278.746
279.107
279.442
279.754
280.043
280.312
280.561
280.791
281.004
281.201
281.384
281.552
281.707
281.85
281.982
282.103
282.215
282.317
282.411
282.498
282.577
282.649
282.716
282.776
282.831
282.88
282.925
282.965
283.001
283.033
283.061
283.086
283.106
283.123
283.137
283.147
283.154
283.157
283.157
283.153
283.145
283.133
283.116
283.095
283.068
283.04
282.985
261.042
261.683
262.342
263.018
263.709
264.412
265.125