/*--------------------------------*- C++ -*----------------------------------*\
| =========                 |                                                 |
| \\      /  F ield         | OpenFOAM: The Open Source CFD Toolbox           |
|  \\    /   O peration     | Version:  5.x                                   |
|   \\  /    A nd           | Web:      www.OpenFOAM.org                      |
|    \\/     M anipulation  |                                                 |
\*---------------------------------------------------------------------------*/
FoamFile
{
    version     2.0;
    format      ascii;
    class       surfaceScalarField;
    location    "300";
    object      phi;
}
// * * * * * * * * * * * * * * * * * * * * * * * * * * * * * * * * * * * * * //

dimensions      [0 3 -1 0 0 0 0];

internalField   nonuniform List<scalar> 
21876
(
0.0430551
-0.0101781
-0.0328737
0.0439131
-0.000857839
0.0395165
0.00439677
0.0345963
0.00492028
0.0312555
0.00334085
0.0297437
0.00151193
0.0290105
0.00073319
0.027947
0.00106347
0.0270177
0.000929368
0.0262276
0.000790043
0.0255436
0.000683999
0.0249448
0.000598842
0.0244149
0.000529905
0.0239582
0.000456672
0.0235589
0.000399333
0.023093
0.000465905
0.0224501
0.000642842
0.0217961
0.00065406
0.0211594
0.000636644
0.0205454
0.000614016
0.0199491
0.000596359
0.0194086
0.000540448
0.0188848
0.000523765
0.0183528
0.00053201
0.0178341
0.00051875
0.0174141
0.000420016
0.0170622
0.000351872
0.0167319
0.000330259
0.0164094
0.000322526
0.0160837
0.00032572
0.0157472
0.000336477
0.0153936
0.000353595
0.0150156
0.000378064
0.0146016
0.000413952
0.0141433
0.000458337
0.0136278
0.000515499
0.0130371
0.00059065
0.012332
0.000705061
0.0115104
0.000821628
0.010233
0.0012774
0.00134847
0.00888455
0.0433318
-0.0198457
-0.0336641
0.0469717
-0.00449767
0.0482766
0.003092
0.0480768
0.00512014
0.0467977
0.00462007
0.0451152
0.0031944
0.043371
0.00247743
0.0414613
0.00297316
0.0397592
0.0026315
0.0382742
0.00227503
0.0369507
0.00200748
0.0357735
0.00177609
0.0347319
0.00157151
0.0338193
0.00136925
0.0330292
0.00118944
0.0322865
0.00120858
0.0314674
0.00146198
0.0306328
0.00148866
0.0297915
0.00147795
0.0289544
0.0014511
0.0281285
0.00142228
0.0273819
0.00128707
0.0266812
0.00122444
0.0259978
0.00121541
0.0253258
0.00119073
0.0247282
0.00101767
0.0242038
0.000876234
0.0237259
0.000808148
0.023279
0.000769477
0.0228474
0.000757283
0.0224185
0.000765337
0.021982
0.000790177
0.0215278
0.000832182
0.0210424
0.000899406
0.0205168
0.000983896
0.0199361
0.00109625
0.01929
0.00123671
0.0185109
0.00148413
0.0176735
0.00165909
0.0164171
0.00253377
0.00448185
0.0132837
0.0479103
-0.0312301
-0.0365259
0.0551054
-0.0116927
0.0582338
-3.63599e-05
0.0591291
0.0042249
0.0587518
0.00499733
0.0576841
0.00426215
0.056225
0.00393655
0.0543592
0.00483887
0.0524349
0.00455587
0.050619
0.00409093
0.0489331
0.00369333
0.0473922
0.00331702
0.0460033
0.00296036
0.0447668
0.00260573
0.043669
0.00228724
0.0426283
0.00224932
0.0415339
0.00255638
0.0404503
0.00257225
0.0393875
0.00254081
0.0383437
0.00249485
0.0373165
0.00244949
0.0363852
0.00221841
0.0355092
0.00210044
0.0346614
0.00206315
0.0338426
0.00200954
0.0331128
0.0017475
0.0324645
0.00152448
0.0318662
0.00140644
0.0313014
0.00133431
0.0307548
0.00130384
0.0302132
0.00130696
0.0296648
0.00133865
0.0290976
0.00139928
0.0284952
0.00150187
0.0278473
0.00163174
0.0271371
0.00180654
0.0263518
0.00202194
0.025423
0.00241296
0.0243845
0.00269755
0.0230047
0.00391358
0.00771451
0.0197721
0.0521586
-0.043277
-0.0401118
0.0615367
-0.0210708
0.0668637
-0.00536335
0.0692208
0.00186778
0.0698754
0.00434281
0.0696039
0.00453362
0.0687837
0.00475679
0.0674237
0.00619886
0.0657494
0.00623011
0.0640081
0.00583223
0.0622887
0.00541281
0.0606291
0.00497655
0.0590598
0.00452968
0.0576055
0.00406002
0.0562716
0.00362116
0.0549904
0.00353052
0.0536518
0.00389502
0.0523146
0.00390944
0.0510091
0.00384632
0.0497353
0.00376861
0.0484873
0.00369752
0.0473579
0.00334786
0.0462973
0.00316097
0.0452761
0.00308444
0.0442939
0.00299169
0.0434113
0.0026301
0.0426233
0.00231243
0.0418939
0.00213589
0.0412024
0.00202579
0.0405324
0.00197381
0.0398694
0.00197003
0.0392001
0.00200793
0.0385112
0.00208816
0.0377833
0.00222982
0.037005
0.00241007
0.0361578
0.00265366
0.0352252
0.00295457
0.0341399
0.00349826
0.0329016
0.00393585
0.0313574
0.0054578
0.0108932
0.0281787
0.0568916
-0.0560448
-0.0441238
0.0681078
-0.0322871
0.07611
-0.0133655
0.0807829
-0.0028051
0.0829924
0.00213337
0.0836159
0.00391008
0.083285
0.00508766
0.0822512
0.00723269
0.0807461
0.00773521
0.0790537
0.00752458
0.0773267
0.0071399
0.0756278
0.00667542
0.0739903
0.00616718
0.0724389
0.00561145
0.0709812
0.0050788
0.069563
0.00494871
0.0680759
0.00538211
0.0665612
0.00542416
0.0650641
0.00534344
0.0635925
0.00524018
0.062144
0.00514602
0.0608291
0.00466277
0.0595939
0.00439615
0.058408
0.00427041
0.0572684
0.00413125
0.0562339
0.00366457
0.0553044
0.00324198
0.0544421
0.00299819
0.0536229
0.00284495
0.0528287
0.00276809
0.0520427
0.00275596
0.0512503
0.00280035
0.0504364
0.00290206
0.049579
0.00308725
0.0486658
0.00332323
0.047678
0.00364149
0.0465947
0.00403782
0.0453526
0.00474033
0.0439273
0.00536117
0.0422544
0.00713074
0.0140073
0.0391403
0.0623103
-0.0698067
-0.0485485
0.0751214
-0.0450982
0.0855977
-0.0238419
0.0929866
-0.010194
0.0974282
-0.00230823
0.0995951
0.00174316
0.100208
0.00447505
0.0997331
0.00770733
0.0984928
0.00897546
0.0968383
0.00917912
0.0950284
0.0089498
0.0932041
0.00849973
0.0914319
0.00793933
0.0897487
0.00729471
0.0881673
0.00666015
0.0866452
0.0064709
0.0850729
0.00695435
0.0834564
0.00704066
0.0818401
0.00695978
0.0802376
0.00684268
0.0786488
0.00673483
0.0771971
0.0061145
0.0758287
0.00576451
0.0745155
0.00558362
0.0732523
0.00539447
0.0720931
0.00482375
0.0710436
0.0042914
0.0700679
0.00397392
0.0691392
0.0037737
0.0682376
0.00366967
0.0673449
0.00364866
0.0664444
0.00370082
0.0655196
0.0038269
0.0645459
0.00406093
0.0635108
0.00435836
0.0623957
0.00475659
0.0611772
0.00525634
0.0597979
0.00611957
0.0582224
0.00693665
0.0564771
0.00887608
0.0170036
0.0534808
0.0686451
-0.0849985
-0.0534534
0.0830244
-0.0594775
0.0956216
-0.0364391
0.105638
-0.02021
0.11272
-0.00939021
0.117095
-0.00263244
0.119336
0.00223377
0.119977
0.007067
0.119407
0.00954474
0.118047
0.0105395
0.116264
0.010733
0.114316
0.010448
0.112349
0.00990604
0.110447
0.00919644
0.108651
0.00845603
0.106945
0.00817694
0.105238
0.00866163
0.103506
0.00877227
0.101783
0.00868302
0.100082
0.00854413
0.0983978
0.00841867
0.0968574
0.00765487
0.0954059
0.00721606
0.0940169
0.00697266
0.0926819
0.00672945
0.0914462
0.00605947
0.0903204
0.00541713
0.0892727
0.00502163
0.0882745
0.00477191
0.0873047
0.00463949
0.0863438
0.00460957
0.0853736
0.00467098
0.0843762
0.00482428
0.0833252
0.005112
0.082208
0.00547549
0.0810079
0.00595673
0.0797011
0.00656313
0.0782393
0.00758132
0.0765902
0.00858577
0.0748567
0.0106096
0.0197826
0.0720776
0.0760613
-0.102145
-0.058915
0.0922375
-0.0756537
0.106812
-0.0510136
0.11921
-0.0326081
0.128954
-0.0191346
0.135909
-0.00958673
0.14035
-0.0022077
0.142732
0.00468511
0.143421
0.00885531
0.14285
0.0111106
0.141452
0.0121312
0.139595
0.0123048
0.137535
0.0119661
0.135434
0.0112977
0.133387
0.0105031
0.131425
0.0101388
0.129499
0.010588
0.127577
0.010694
0.125684
0.0105763
0.123838
0.0103896
0.122038
0.0102193
0.120407
0.00928544
0.118885
0.00873766
0.117445
0.00841314
0.116072
0.00810244
0.114799
0.00733291
0.113637
0.00657886
0.11256
0.00609853
0.111538
0.0057937
0.110549
0.00562902
0.109571
0.00558737
0.108585
0.00565648
0.107573
0.00583661
0.106506
0.00617892
0.105373
0.00660816
0.104161
0.00716907
0.102849
0.00787545
0.1014
0.00903007
0.099798
0.0101877
0.0981974
0.0122102
0.0222124
0.0957676
0.084737
-0.121853
-0.0650289
0.103136
-0.0940524
0.119807
-0.0676854
0.134443
-0.0472435
0.146683
-0.0313752
0.156272
-0.019175
0.163239
-0.0091754
0.16785
7.46248e-05
0.17038
0.00632519
0.171193
0.0102979
0.170713
0.0126106
0.169367
0.0136511
0.167506
0.0138269
0.165388
0.0134155
0.163187
0.0127044
0.161
0.0123253
0.15884
0.0127488
0.15669
0.0128438
0.154573
0.0126929
0.15252
0.012443
0.150539
0.0122004
0.148766
0.0110585
0.147135
0.0103679
0.145619
0.00992977
0.144197
0.00952442
0.142886
0.00864364
0.141696
0.00776916
0.140604
0.0071904
0.139581
0.00681699
0.138601
0.00660862
0.137643
0.00654507
0.136687
0.00661268
0.135713
0.00681112
0.134692
0.00719985
0.133616
0.00768412
0.132476
0.00830924
0.131258
0.00909299
0.12994
0.0103479
0.128528
0.0115996
0.127199
0.0135396
0.0241494
0.125262
0.0948802
-0.144827
-0.0719062
0.116079
-0.115251
0.135209
-0.0868152
0.152164
-0.0641986
0.16679
-0.0460011
0.178901
-0.0312868
0.188448
-0.0187217
0.195542
-0.00701983
0.200325
0.00154199
0.203058
0.00756569
0.204078
0.0115896
0.20379
0.0139398
0.202586
0.0150305
0.200803
0.0151986
0.198698
0.0148092
0.196451
0.0145723
0.194152
0.0150483
0.191827
0.0151688
0.18951
0.0150097
0.187244
0.0147094
0.185054
0.0143898
0.183097
0.0130156
0.181312
0.0121534
0.179673
0.0115687
0.178161
0.0110359
0.176782
0.0100232
0.175538
0.00901289
0.174412
0.00831646
0.173375
0.00785384
0.172401
0.00758241
0.171468
0.00747838
0.170555
0.00752601
0.169642
0.00772389
0.168703
0.0081393
0.167732
0.00865452
0.166728
0.00931329
0.165687
0.0101338
0.164599
0.0114357
0.163495
0.0127039
0.162544
0.0144913
0.0254855
0.161207
0.106748
-0.171895
-0.0796796
0.131464
-0.139967
0.153609
-0.108961
0.173214
-0.0838036
0.190312
-0.0630996
0.20488
-0.0458546
0.216923
-0.0307648
0.226529
-0.0166251
0.233742
-0.00567174
0.238729
0.00257879
0.241727
0.00859219
0.243043
0.0126236
0.243039
0.0150339
0.242074
0.0161635
0.240464
0.0164197
0.238464
0.0165719
0.23625
0.0172629
0.23391
0.0175088
0.23151
0.0174092
0.229113
0.0171062
0.226768
0.0167352
0.224649
0.0151347
0.222709
0.0140928
0.220934
0.0133438
0.21931
0.0126605
0.217835
0.0114979
0.216511
0.0103367
0.215325
0.00950308
0.214251
0.00892771
0.213264
0.00856906
0.212342
0.00840037
0.211465
0.00840296
0.210616
0.00857357
0.209768
0.00898681
0.208924
0.00949811
0.208089
0.0101483
0.207271
0.0109525
0.206466
0.0122401
0.205728
0.0134427
0.205193
0.0150257
0.0261961
0.204483
0.120659
-0.204043
-0.0885112
0.149761
-0.169069
0.175652
-0.134852
0.198455
-0.106606
0.218351
-0.0829957
0.235486
-0.0629898
0.249998
-0.0452769
0.262043
-0.0286699
0.271683
-0.0153119
0.279033
-0.00477132
0.284262
0.00336338
0.287582
0.00930306
0.289271
0.0133456
0.289643
0.0157911
0.28902
0.0170429
0.287699
0.0178923
0.285924
0.0190381
0.28385
0.0195834
0.281591
0.0196681
0.279242
0.0194549
0.276881
0.019096
0.274698
0.0173184
0.272673
0.0161173
0.270809
0.0152081
0.2691
0.0143689
0.267548
0.0130506
0.266152
0.0117324
0.264906
0.0107493
0.263792
0.0100419
0.262788
0.00957219
0.261877
0.00931217
0.261039
0.00924035
0.260261
0.00935139
0.259521
0.0097274
0.258825
0.0101935
0.258186
0.0107875
0.257619
0.0115195
0.257124
0.0127349
0.256766
0.0138008
0.256643
0.0151484
0.0263282
0.256511
0.137011
-0.242452
-0.0986011
0.171546
-0.203605
0.202087
-0.165392
0.228828
-0.133348
0.252069
-0.106237
0.272108
-0.0830285
0.289233
-0.0624013
0.303721
-0.0431584
0.315729
-0.0273197
0.32541
-0.0144525
0.332918
-0.00414472
0.338418
0.00380285
0.342111
0.0096526
0.34424
0.0136629
0.345078
0.0162043
0.344918
0.0180527
0.344029
0.0199265
0.342612
0.0210002
0.340829
0.0214515
0.338813
0.021471
0.336677
0.0212325
0.33461
0.0193853
0.332642
0.0180852
0.3308
0.0170501
0.329096
0.0160723
0.327538
0.014609
0.326131
0.0131393
0.324875
0.0120048
0.323763
0.0111548
0.322779
0.0105558
0.321911
0.0101803
0.321147
0.0100046
0.320476
0.0100216
0.319882
0.0103218
0.319378
0.010698
0.318979
0.0111865
0.318705
0.011793
0.318553
0.0128868
0.31859
0.0137636
0.318879
0.0148602
0.0259352
0.319272
0.156295
-0.28855
-0.110197
0.197528
-0.244838
0.233819
-0.201683
0.265431
-0.16496
0.29277
-0.133575
0.316268
-0.106527
0.336362
-0.0824958
0.353472
-0.0602677
0.367884
-0.0417318
0.379853
-0.0264214
0.38959
-0.0138822
0.39727
-0.00387656
0.403068
0.00385386
0.407177
0.00955423
0.409812
0.0135696
0.411222
0.0166424
0.411665
0.0194836
0.411349
0.0213165
0.410459
0.0223416
0.409157
0.0227722
0.407588
0.0228015
0.405914
0.0210595
0.404229
0.0197707
0.402595
0.0186834
0.401052
0.0176154
0.399621
0.0160403
0.398319
0.0144409
0.397159
0.0131655
0.396141
0.0121722
0.395264
0.0114334
0.39452
0.0109235
0.393907
0.010618
0.39342
0.0105088
0.393045
0.0106964
0.392803
0.0109404
0.392711
0.0112784
0.39279
0.0117138
0.39303
0.0126473
0.393493
0.0132999
0.394215
0.0141383
0.0250321
0.395118
0.17912
-0.344063
-0.123607
0.228582
-0.2943
0.271959
-0.24506
0.309587
-0.202588
0.341978
-0.165966
0.3697
-0.134249
0.393335
-0.106131
0.413448
-0.0803805
0.430475
-0.0587589
0.444801
-0.0407474
0.456745
-0.0258261
0.46655
-0.0136819
0.474423
-0.0040187
0.480552
0.00342475
0.485127
0.00899497
0.488355
0.0134143
0.490462
0.0173766
0.491637
0.0201416
0.49206
0.0219185
0.4919
0.022932
0.491315
0.0233867
0.490395
0.0219795
0.489306
0.0208598
0.488153
0.019837
0.487005
0.0187632
0.485906
0.0171391
0.484893
0.0154542
0.483993
0.0140656
0.483223
0.0129423
0.482592
0.0120642
0.482106
0.0114095
0.481769
0.0109551
0.481584
0.0106937
0.481542
0.0107379
0.481667
0.0108153
0.481978
0.0109676
0.482493
0.0111989
0.483194
0.0119464
0.484138
0.012356
0.48534
0.0129359
0.0235931
0.486779
0.206238
-0.411093
-0.139209
0.265788
-0.353849
0.317874
-0.297146
0.362914
-0.247628
0.401541
-0.204593
0.434465
-0.167173
0.462421
-0.134087
0.486129
-0.104088
0.506181
-0.0788112
0.523109
-0.0576752
0.537363
-0.0400802
0.549298
-0.0256174
0.5592
-0.0139207
0.567304
-0.00467863
0.573815
0.00248372
0.578937
0.00829256
0.582873
0.01344
0.585792
0.0172226
0.587855
0.0198556
0.589218
0.0215688
0.590034
0.0225708
0.590267
0.0217463
0.590149
0.0209784
0.589819
0.0201672
0.589378
0.0192034
0.588896
0.0176212
0.588431
0.0159197
0.58803
0.0144668
0.587727
0.0132448
0.587548
0.0122436
0.587509
0.0114478
0.587627
0.0108379
0.58791
0.01041
0.588357
0.0102913
0.588992
0.01018
0.589835
0.010125
0.5909
0.0101335
0.592164
0.0106825
0.593676
0.010844
0.59544
0.0111722
0.02155
0.597483
0.238551
-0.492193
-0.157451
0.310455
-0.425753
0.373229
-0.35992
0.427388
-0.301787
0.473703
-0.250907
0.513046
-0.206517
0.546327
-0.167368
0.574432
-0.132194
0.598126
-0.102505
0.618097
-0.0776463
0.634943
-0.0569266
0.649154
-0.0398277
0.661126
-0.0258932
0.671182
-0.0147345
0.679586
-0.00591987
0.686573
0.00130514
0.692364
0.00764944
0.697123
0.0124632
0.701003
0.0159754
0.704147
0.0184249
0.706694
0.0200241
0.708436
0.020004
0.709655
0.0197594
0.710513
0.0193093
0.711135
0.018582
0.711608
0.0171476
0.712012
0.0155154
0.712415
0.0140641
0.712868
0.0127921
0.71341
0.0117009
0.714074
0.0107842
0.714883
0.0100287
0.715857
0.00943635
0.716997
0.0091511
0.718331
0.00884561
0.719878
0.00857806
0.721651
0.00836079
0.723621
0.00871185
0.725833
0.00863205
0.728283
0.00872238
0.0187867
0.731047
0.251521
-0.581229
-0.162485
0.330348
-0.504581
0.399078
-0.42865
0.458282
-0.360992
0.50881
-0.301434
0.551627
-0.249334
0.587737
-0.203478
0.618123
-0.162579
0.643646
-0.128028
0.66509
-0.0990908
0.683144
-0.0749799
0.698382
-0.0550665
0.711286
-0.0387972
0.722248
-0.0256959
0.731586
-0.0152585
0.739575
-0.00668339
0.746454
0.000770671
0.752402
0.00651435
0.757572
0.0108063
0.762094
0.0139021
0.766094
0.0160248
0.769211
0.0168863
0.771736
0.017235
0.773822
0.0172235
0.775593
0.0168101
0.777143
0.0155982
0.778554
0.0141042
0.779902
0.0127165
0.781245
0.0114484
0.782633
0.0103135
0.784102
0.00931531
0.785683
0.00844773
0.787399
0.00772007
0.789258
0.00729231
0.791285
0.00681817
0.793498
0.00636505
0.795908
0.00595112
0.798489
0.00613057
0.801277
0.00584442
0.804265
0.00573387
0.0154875
0.807564
0.261558
-0.677058
-0.165728
0.346316
-0.589339
0.420151
-0.502485
0.483686
-0.424526
0.537835
-0.355583
0.58364
-0.295139
0.622184
-0.242022
0.654527
-0.194921
0.68161
-0.155111
0.70429
-0.121771
0.723325
-0.0940149
0.73936
-0.0711017
0.75294
-0.0523773
0.764518
-0.0372731
0.774464
-0.0252053
0.783095
-0.0153137
0.790677
-0.00681123
0.797413
-0.000221686
0.803469
0.00474993
0.808984
0.0083872
0.814078
0.0109311
0.818283
0.0126814
0.821883
0.0136349
0.825019
0.0140875
0.827807
0.0140223
0.830333
0.0130714
0.832681
0.0117565
0.834924
0.0104733
0.837124
0.00924873
0.83933
0.00810781
0.841582
0.00706332
0.843912
0.00611708
0.846347
0.00528575
0.848895
0.0047437
0.851582
0.00413151
0.854422
0.00352494
0.857425
0.00294776
0.860572
0.00298418
0.863889
0.00252757
0.867371
0.00225175
0.0117074
0.871151
0.273616
-0.780305
-0.170368
0.364872
-0.680596
0.444322
-0.581934
0.512639
-0.492844
0.570809
-0.413753
0.619957
-0.344287
0.661249
-0.283315
0.695825
-0.229497
0.724707
-0.183993
0.748826
-0.14589
0.769006
-0.114195
0.785958
-0.0880535
0.800286
-0.0667057
0.812499
-0.0494858
0.823019
-0.0357252
0.832203
-0.0244978
0.840355
-0.014963
0.847705
-0.00757231
0.854444
-0.00198845
0.860725
0.00210592
0.866679
0.00497705
0.871759
0.00760111
0.876247
0.00914691
0.880271
0.0100636
0.883938
0.0103555
0.887329
0.00968067
0.89052
0.00856461
0.893585
0.00740894
0.896581
0.00625272
0.899557
0.00513138
0.902554
0.0040667
0.905603
0.00306806
0.908729
0.00215935
0.911946
0.0015272
0.915273
0.000803818
0.918726
7.2129e-05
0.922313
-0.000639037
0.926019
-0.000721434
0.929864
-0.00131817
0.933846
-0.00172997
0.00744123
0.938112
0.287558
-0.891633
-0.17623
0.385911
-0.778949
0.471504
-0.667527
0.545069
-0.566409
0.607669
-0.476353
0.660516
-0.397134
0.704866
-0.327664
0.741945
-0.266577
0.77286
-0.214908
0.798617
-0.171646
0.820109
-0.135688
0.838112
-0.106056
0.853289
-0.0818825
0.866201
-0.0623979
0.87732
-0.0468437
0.887044
-0.034222
0.895714
-0.0236329
0.903593
-0.015452
0.910898
-0.00929273
0.917803
-0.00479968
0.924456
-0.00167602
0.930254
0.00180353
0.935479
0.00392169
0.940252
0.00529096
0.944672
0.00593536
0.948815
0.0055374
0.952754
0.00462604
0.956555
0.00360784
0.960275
0.002533
0.963959
0.00144663
0.967647
0.000378932
0.971369
-0.000653452
0.975148
-0.00161989
0.978999
-0.00232356
0.982939
-0.00313676
0.986982
-0.00397062
0.991135
-0.00479191
0.995388
-0.00497401
0.999756
-0.00568627
1.00424
-0.00621053
0.0026886
1.00899
0.303334
-1.01175
-0.183212
0.409421
-0.885036
0.50172
-0.759827
0.581026
-0.645715
0.648484
-0.543811
0.7054
-0.45405
0.753126
-0.375391
0.792984
-0.306435
0.826168
-0.248092
0.853765
-0.199243
0.876741
-0.158663
0.895936
-0.125252
0.912074
-0.0980206
0.92577
-0.0760933
0.937541
-0.0586152
0.947831
-0.0445113
0.957014
-0.0328163
0.965389
-0.0238267
0.973198
-0.0171025
0.980644
-0.012245
0.98789
-0.00892259
0.994293
-0.00459913
1.00014
-0.00192607
1.00555
-0.000117843
1.01062
0.000869362
1.01541
0.000742396
1.02
3.37874e-05
1.02446
-0.000845214
1.02882
-0.00183376
1.03315
-0.00287758
1.03746
-0.00393844
1.0418
-0.00499278
1.04619
-0.00600364
1.05063
-0.00676596
1.05515
-0.00765335
1.05975
-0.00857209
1.06444
-0.00948518
1.06922
-0.00975283
1.0741
-0.0105615
1.07906
-0.0111799
-0.00254264
1.0843
0.320948
-1.14144
-0.191262
0.435456
-0.999545
0.535067
-0.859438
0.62064
-0.731288
0.69341
-0.61658
0.754786
-0.515426
0.806225
-0.42683
0.849148
-0.349358
0.884846
-0.28379
0.91449
-0.228887
0.939125
-0.183298
0.959659
-0.145786
0.976879
-0.11524
0.991452
-0.0906663
1.00395
-0.0711095
1.01485
-0.0554111
1.02456
-0.0425352
1.03343
-0.0326948
1.04172
-0.0253928
1.04966
-0.0201833
1.05744
-0.0166963
1.06437
-0.0115303
1.07075
-0.00831294
1.07671
-0.00607609
1.08234
-0.00475517
1.0877
-0.00461856
1.09286
-0.00512944
1.09789
-0.00587161
1.10283
-0.00677371
1.10772
-0.00777246
1.1126
-0.00882184
1.1175
-0.00989152
1.12244
-0.0109387
1.12742
-0.0117517
1.13247
-0.0127027
1.1376
-0.0136942
1.1428
-0.0146858
1.14807
-0.0150294
1.15343
-0.0159201
1.15887
-0.0166192
-0.00823616
1.16456
0.340445
-1.28153
-0.200358
0.46412
-1.12322
0.571697
-0.967014
0.664104
-0.823696
0.742676
-0.695152
0.808931
-0.58168
0.864439
-0.482338
0.910733
-0.395651
0.949202
-0.32226
0.981112
-0.260797
1.00759
-0.209775
1.02962
-0.167813
1.04804
-0.133666
1.06359
-0.106218
1.07689
-0.0844051
1.08846
-0.0669783
1.09875
-0.0528258
1.10812
-0.0420726
1.11689
-0.0341604
1.1253
-0.0285922
1.13356
-0.0249562
1.14097
-0.0189376
1.14783
-0.0151778
1.15427
-0.0125168
1.16039
-0.0108677
1.16624
-0.0104733
1.1719
-0.0107913
1.17743
-0.0114002
1.18288
-0.0122178
1.18828
-0.0131718
1.19366
-0.0142085
1.19906
-0.0152907
1.20449
-0.01637
1.20997
-0.0172294
1.2155
-0.0182377
1.2211
-0.019294
1.22677
-0.0203553
1.23251
-0.0207687
1.23832
-0.0217315
1.24421
-0.0225015
-0.0143681
1.25034
0.361903
-1.43293
-0.210501
0.495555
-1.25687
0.611806
-1.08327
0.711665
-0.923554
0.796568
-0.780056
0.868156
-0.653268
0.928119
-0.542302
0.978108
-0.445641
1.01962
-0.363776
1.05403
-0.295204
1.08254
-0.238287
1.10622
-0.191492
1.12599
-0.153431
1.14263
-0.122857
1.15681
-0.0985866
1.16911
-0.0792768
1.18001
-0.0637328
1.18993
-0.0519866
1.19918
-0.043414
1.20805
-0.0374633
1.21677
-0.0336774
1.22462
-0.0267846
1.23192
-0.0224747
1.23879
-0.019387
1.24533
-0.0174103
1.25162
-0.0167604
1.25772
-0.0168886
1.26368
-0.0173671
1.26957
-0.0181026
1.27541
-0.0190135
1.28124
-0.0200378
1.28708
-0.021132
1.29295
-0.0222418
1.29887
-0.0231463
1.30484
-0.0242086
1.31087
-0.0253251
1.31697
-0.0264504
1.32313
-0.0269307
1.32935
-0.0279588
1.33565
-0.0287934
-0.020908
1.34219
0.385423
-1.59664
-0.221711
0.529935
-1.40138
0.655636
-1.20897
0.763616
-1.03153
0.855429
-0.871868
0.932841
-0.73068
0.997677
-0.607138
1.05172
-0.499679
1.09658
-0.408636
1.13373
-0.332356
1.16448
-0.269041
1.18999
-0.216996
1.21123
-0.174677
1.22907
-0.140695
1.24423
-0.113744
1.25733
-0.0923753
1.2689
-0.0753059
1.27938
-0.0624687
1.28914
-0.0531687
1.29847
-0.0467957
1.30763
-0.0428434
1.31589
-0.035044
1.32359
-0.030167
1.33084
-0.0266425
1.33776
-0.0243331
1.34443
-0.0234256
1.3509
-0.023364
1.35725
-0.0237132
1.36352
-0.0243681
1.36974
-0.0252372
1.37595
-0.0262505
1.38218
-0.0273573
1.38843
-0.0284978
1.39474
-0.0294476
1.40109
-0.0305627
1.4075
-0.0317373
1.41397
-0.0329237
1.42051
-0.0334699
1.42711
-0.0345594
1.43378
-0.0354547
-0.0278186
1.44069
0.411131
-1.77375
-0.234021
0.567471
-1.55772
0.703467
-1.34496
0.820301
-1.14837
0.919652
-0.971218
1.00343
-0.814453
1.07359
-0.677303
1.13206
-0.55815
1.18059
-0.457162
1.22075
-0.372523
1.25397
-0.302262
1.28149
-0.244508
1.30436
-0.197552
1.32352
-0.159854
1.33975
-0.129972
1.35372
-0.106346
1.36601
-0.0875977
1.3771
-0.0735532
1.38737
-0.0634423
1.39717
-0.0565913
1.40676
-0.0524413
1.41541
-0.0436924
1.42347
-0.0382222
1.43107
-0.0342432
1.43832
-0.0315898
1.44532
-0.0304181
1.45212
-0.0301628
1.45878
-0.0303812
1.46537
-0.0309554
1.47192
-0.0317835
1.47845
-0.0327867
1.485
-0.0339071
1.49158
-0.0350791
1.49821
-0.0360756
1.50489
-0.0372439
1.51163
-0.0384762
1.51843
-0.0397225
1.5253
-0.0403357
1.53222
-0.0414846
1.53921
-0.0424388
-0.0350561
1.54644
0.439177
-1.96546
-0.247474
0.6084
-1.72695
0.755618
-1.49218
0.88211
-1.27486
0.989688
-1.0788
1.08041
-0.905176
1.1564
-0.753293
1.21973
-0.621474
1.27227
-0.509705
1.31574
-0.415996
1.35167
-0.338189
1.38139
-0.274226
1.40605
-0.222219
1.42666
-0.180463
1.44406
-0.147372
1.45898
-0.121267
1.47205
-0.100663
1.48377
-0.0852759
1.49458
-0.0742526
1.50484
-0.0668517
1.51486
-0.062457
1.52387
-0.0527061
1.53226
-0.0466074
1.54016
-0.0421491
1.54771
-0.0391343
1.55497
-0.0376862
1.56204
-0.0372297
1.56897
-0.0373128
1.57582
-0.0378039
1.58263
-0.0385903
1.58943
-0.0395837
1.59624
-0.0407184
1.60308
-0.0419231
1.60997
-0.0429682
1.61692
-0.0441908
1.62393
-0.0454815
1.63099
-0.046788
1.63813
-0.0474701
1.64532
-0.0486782
1.65257
-0.049691
-0.0425683
1.66008
0.46973
-2.17306
-0.262126
0.652997
-1.91021
0.812452
-1.65163
0.949481
-1.41189
1.06604
-1.19536
1.16436
-1.00349
1.24672
-0.835656
1.31536
-0.690111
1.3723
-0.56665
1.4194
-0.463096
1.4583
-0.377089
1.49044
-0.306367
1.51708
-0.24885
1.53927
-0.202659
1.55795
-0.166051
1.5739
-0.137216
1.5878
-0.114559
1.60019
-0.0976721
1.61156
-0.0856162
1.62228
-0.0775758
1.6327
-0.0728732
1.64205
-0.0620579
1.65073
-0.0552867
1.65889
-0.0503161
1.66668
-0.0469162
1.67416
-0.0451747
1.68144
-0.0445049
1.68857
-0.0444448
1.69562
-0.0448482
1.70262
-0.0455902
1.70961
-0.0465729
1.71661
-0.0477222
1.72365
-0.0489603
1.73073
-0.0500559
1.73788
-0.0513346
1.74508
-0.052685
1.75235
-0.0540529
1.75968
-0.0548069
1.76708
-0.0560749
1.77454
-0.0571472
-0.0502937
1.78226
0.502982
-2.398
-0.27804
0.701568
-2.1088
0.874375
-1.82444
1.02291
-1.56042
1.14929
-1.32174
1.25591
-1.11011
1.34524
-0.924991
1.4197
-0.764566
1.48147
-0.62842
1.53254
-0.514173
1.5747
-0.419248
1.6095
-0.341164
1.63829
-0.277636
1.66222
-0.226593
1.68229
-0.186124
1.69936
-0.154279
1.71414
-0.129342
1.72724
-0.110776
1.73917
-0.0975462
1.75036
-0.0887573
1.76115
-0.0836657
1.7708
-0.0717144
1.77974
-0.064217
1.78811
-0.0586938
1.79608
-0.0548785
1.80372
-0.0528208
1.81114
-0.0519213
1.8184
-0.0517065
1.82557
-0.0520146
1.83268
-0.0527077
1.83979
-0.0536771
1.84691
-0.05484
1.85406
-0.056112
1.86126
-0.0572598
1.86852
-0.0585962
1.87585
-0.060008
1.88323
-0.0614391
1.89069
-0.0622685
1.89822
-0.063598
1.9058
-0.0647318
-0.0581589
1.91367
0.53915
-2.64186
-0.295289
0.754455
-2.32411
0.941843
-2.01183
1.10295
-1.72153
1.24005
-1.45884
1.35576
-1.22582
1.45273
-1.02196
1.53356
-0.845395
1.60062
-0.69548
1.65606
-0.569614
1.70179
-0.464985
1.73951
-0.378878
1.77065
-0.308783
1.79649
-0.252426
1.81808
-0.207713
1.83634
-0.172545
1.85207
-0.145074
1.86592
-0.124621
1.87842
-0.110051
1.89005
-0.100384
1.90119
-0.0948017
1.9111
-0.0816327
1.92023
-0.073346
1.92876
-0.0672216
1.93684
-0.0629537
1.94457
-0.0605514
1.95205
-0.0594007
1.95935
-0.059016
1.96656
-0.059218
1.97371
-0.0598551
1.98084
-0.060807
1.98798
-0.0619815
1.99515
-0.0632866
2.00238
-0.0644878
2.00967
-0.0658834
2.01702
-0.0673586
2.02443
-0.0688547
2.03193
-0.0697634
2.03949
-0.0711567
2.04711
-0.0723547
-0.0660759
2.05503
0.578474
-2.90638
-0.313953
0.812042
-2.55767
1.01536
-2.21515
1.19021
-1.89637
1.33906
-1.60769
1.46471
-1.35147
1.57004
-1.12729
1.65786
-0.933214
1.73072
-0.768344
1.79095
-0.629844
1.84062
-0.514649
1.88153
-0.419789
1.91526
-0.342516
1.94317
-0.280332
1.9664
-0.230951
1.98597
-0.192107
2.0027
-0.161812
2.01732
-0.139237
2.0304
-0.123135
2.04245
-0.112433
2.05389
-0.106237
2.06401
-0.0917583
2.07328
-0.0826088
2.08188
-0.0758257
2.08999
-0.0710608
2.09772
-0.068279
2.10517
-0.0668507
2.11243
-0.0662764
2.11957
-0.0663583
2.12664
-0.0669295
2.13369
-0.0678576
2.14075
-0.0690398
2.14784
-0.0703765
2.15498
-0.0716315
2.16219
-0.0730874
2.16946
-0.0746275
2.17679
-0.0761908
2.18421
-0.077183
2.1917
-0.0786428
2.19925
-0.0799081
-0.0739392
2.20712
0.621222
-3.19348
-0.334122
0.874756
-2.81121
1.0955
-2.4359
1.28539
-2.08626
1.44709
-1.76939
1.58363
-1.48801
1.69814
-1.2418
1.79363
-1.0287
1.87286
-0.84758
1.93835
-0.695333
1.99233
-0.568624
2.03675
-0.464211
2.07332
-0.379082
2.10349
-0.310505
2.12852
-0.25598
2.14947
-0.213065
2.16728
-0.179619
2.18269
-0.154651
2.19635
-0.136793
2.20879
-0.124873
2.22047
-0.117912
2.23073
-0.102022
2.24005
-0.0919247
2.24864
-0.084416
2.25668
-0.0791015
2.2643
-0.0758988
2.27161
-0.0741606
2.2787
-0.0733724
2.28566
-0.0733162
2.29254
-0.0738088
2.29939
-0.0747043
2.30624
-0.0758887
2.31311
-0.0772539
2.32005
-0.078562
2.32704
-0.0800787
2.33409
-0.0816852
2.34122
-0.0833177
2.34844
-0.0843975
2.35572
-0.0859269
2.36307
-0.087263
-0.0816219
2.37076
0.667691
-3.50528
-0.355892
0.943071
-3.08659
1.18289
-2.67572
1.38925
-2.29261
1.56503
-1.94518
1.71353
-1.63651
1.8381
-1.36637
1.94201
-1.13261
2.02825
-0.933816
2.09952
-0.766603
2.15823
-0.627339
2.20651
-0.512486
2.24618
-0.418754
2.27883
-0.343152
2.3058
-0.282953
2.32826
-0.235522
2.34719
-0.198555
2.36343
-0.170884
2.37765
-0.151012
2.39043
-0.137658
2.40227
-0.129752
2.41259
-0.112336
2.42185
-0.101194
2.43032
-0.0928821
2.43818
-0.0869567
2.44556
-0.0832839
2.4526
-0.0811973
2.45939
-0.0801657
2.46602
-0.0799493
2.47256
-0.0803471
2.47906
-0.0811983
2.48554
-0.0823771
2.49206
-0.0837661
2.49862
-0.0851256
2.50524
-0.0867027
2.51194
-0.0883764
2.5187
-0.0900799
2.52555
-0.0912516
2.53248
-0.0928536
2.53948
-0.0942645
-0.0889712
2.54683
0.718212
-3.84412
-0.37937
1.01752
-3.38589
1.27823
-2.93644
1.50264
-2.51702
1.69388
-2.13642
1.8555
-1.79812
1.99113
-1.502
2.10429
-1.24578
2.19823
-1.02775
2.27586
-0.844232
2.33979
-0.691265
2.3923
-0.564996
2.43537
-0.461831
2.47072
-0.378503
2.49981
-0.312036
2.52387
-0.25959
2.544
-0.218682
2.56107
-0.187953
2.57583
-0.165767
2.58889
-0.150726
2.6008
-0.14166
2.61106
-0.122592
2.62016
-0.110293
2.62836
-0.101089
2.63589
-0.0944819
2.64289
-0.0902816
2.64949
-0.0878011
2.65582
-0.0864908
2.66195
-0.0860872
2.66798
-0.0863698
2.67394
-0.0871622
2.67989
-0.0883251
2.68585
-0.0897312
2.69187
-0.0911388
2.69794
-0.0927749
2.70408
-0.0945159
2.71029
-0.0962917
2.7166
-0.0975595
2.72298
-0.0992375
2.72944
-0.100727
-0.0958039
2.73628
0.773148
-4.2126
-0.404669
1.09868
-3.71142
1.38231
-3.22007
1.62653
-2.76124
1.83474
-2.34463
2.01077
-1.97416
2.15856
-1.64978
2.28191
-1.36914
2.38433
-1.13016
2.46895
-0.928861
2.53862
-0.760927
2.59578
-0.622162
2.6426
-0.508645
2.6809
-0.416808
2.71227
-0.343409
2.73807
-0.285386
2.75945
-0.240059
2.77736
-0.205867
2.79262
-0.181021
2.80589
-0.163996
2.81774
-0.153514
2.8278
-0.132653
2.83658
-0.119072
2.84436
-0.108874
2.85138
-0.101502
2.85781
-0.0967077
2.86379
-0.0937798
2.86945
-0.0921488
2.87489
-0.0915254
2.88018
-0.0916683
2.88541
-0.0923834
2.8906
-0.0935172
2.8958
-0.0949316
2.90104
-0.0963823
2.90634
-0.0980746
2.91171
-0.0998821
2.91715
-0.101731
2.92269
-0.103099
2.92831
-0.104856
2.93401
-0.10643
-0.1019
2.9401
0.832904
-4.61359
-0.431913
1.18721
-4.06573
1.49601
-3.52887
1.76199
-3.02722
1.98885
-2.57149
2.18074
-2.16604
2.34191
-1.81095
2.47648
-1.50371
2.58823
-1.24191
2.68057
-1.02121
2.75656
-0.836908
2.81884
-0.684451
2.86976
-0.55956
2.91129
-0.458342
2.94515
-0.377268
2.9728
-0.313032
2.99549
-0.262746
3.01424
-0.224626
3.02994
-0.19672
3.04331
-0.177364
3.05496
-0.165163
3.06466