/*--------------------------------*- C++ -*----------------------------------*\
| =========                 |                                                 |
| \\      /  F ield         | OpenFOAM: The Open Source CFD Toolbox           |
|  \\    /   O peration     | Version:  5.x                                   |
|   \\  /    A nd           | Web:      www.OpenFOAM.org                      |
|    \\/     M anipulation  |                                                 |
\*---------------------------------------------------------------------------*/
FoamFile
{
    version     2.0;
    format      ascii;
    class       volVectorField;
    location    "300";
    object      U;
}
// * * * * * * * * * * * * * * * * * * * * * * * * * * * * * * * * * * * * * //

dimensions      [0 1 -1 0 0 0 0];

internalField   nonuniform List<vector> 
11040
(
(5.06631 33.1828 -8.15873e-19)
(14.9097 37.0263 0)
(22.383 31.8868 -1.88141e-17)
(26.0463 23.9281 -2.11233e-17)
(27.6021 17.3999 -1.17351e-17)
(28.6052 13.2105 -3.30258e-17)
(29.4452 10.5818 -1.19354e-17)
(29.6373 8.40358 1.1063e-17)
(29.2532 6.51028 8.80745e-18)
(28.5913 5.01766 0)
(27.8682 3.88508 6.51302e-18)
(27.1532 3.0032 0)
(26.4561 2.29202 0)
(25.7929 1.70819 -3.47377e-18)
(25.1881 1.22241 -1.02104e-18)
(24.6047 0.77955 -4.54302e-19)
(23.9023 0.306252 1.7893e-19)
(23.0909 -0.151979 1.32564e-20)
(22.2478 -0.545452 -3.97999e-20)
(21.4154 -0.868682 1.73412e-18)
(20.59 -1.13307 3.90252e-19)
(19.8001 -1.3383 -7.78781e-18)
(19.0516 -1.49047 9.30305e-18)
(18.3162 -1.60429 3.76974e-19)
(17.5806 -1.68189 2.61175e-17)
(16.9057 -1.70717 -1.52831e-17)
(16.3277 -1.69305 0)
(15.8146 -1.66498 0)
(15.3279 -1.63312 -2.06626e-17)
(14.8517 -1.5987 7.17732e-19)
(14.3811 -1.56171 -7.34933e-19)
(13.911 -1.52215 -5.12634e-17)
(13.4345 -1.47967 -4.23066e-19)
(12.9437 -1.43368 0)
(12.4289 -1.3831 6.35244e-17)
(11.8871 -1.32738 -5.17861e-19)
(11.2901 -1.26311 2.71767e-19)
(10.67 -1.19302 2.57288e-20)
(9.82532 -1.10137 4.21544e-17)
(9.33317 -0.974061 -1.78726e-19)
(6.46865 -1.28297 -1.07561e-16)
(11.8236 27.6949 2.04775e-18)
(23.1182 28.735 -1.45682e-18)
(31.7456 26.3192 6.16148e-18)
(36.0289 22.7904 3.34147e-18)
(37.3824 19.1616 0)
(37.3193 15.8699 1.27244e-17)
(36.7804 13.0306 0)
(36.0929 10.4461 -5.7777e-18)
(35.129 8.26459 -1.03291e-17)
(33.9963 6.54428 0)
(32.8508 5.18259 -8.69928e-18)
(31.7622 4.07809 9.17339e-19)
(30.7439 3.16971 -3.28983e-18)
(29.7972 2.41606 6.13175e-19)
(28.9339 1.7783 1.58641e-18)
(28.1643 1.19425 0)
(27.4086 0.604154 6.23993e-20)
(26.5656 0.0797924 1.19649e-19)
(25.6608 -0.357958 -2.28871e-20)
(24.7352 -0.724406 -1.03376e-18)
(23.8024 -1.03123 -2.29297e-19)
(22.904 -1.27459 2.39039e-19)
(22.0652 -1.45956 -5.14528e-18)
(21.2641 -1.60102 -3.84972e-19)
(20.4772 -1.69671 -7.82737e-18)
(19.72 -1.72608 -5.57894e-19)
(19.0381 -1.71875 6.07236e-19)
(18.4302 -1.70464 0)
(17.8681 -1.68658 1.22459e-17)
(17.3344 -1.6632 -1.36543e-17)
(16.8197 -1.63495 1.4663e-17)
(16.3161 -1.60228 1.57348e-17)
(15.8152 -1.56501 -4.97116e-19)
(15.3091 -1.52264 0)
(14.788 -1.47425 -1.83277e-17)
(14.2498 -1.41907 0)
(13.6685 -1.35415 -2.06685e-17)
(13.0806 -1.27997 2.18859e-17)
(12.2807 -1.18308 -2.3419e-17)
(11.8617 -1.06298 -2.46958e-17)
(9.68372 -1.16384 0)
(13.199 24.5624 -1.07898e-18)
(20.5228 27.2563 8.74466e-19)
(27.5274 26.6537 5.99581e-18)
(32.6855 24.0856 8.06512e-18)
(35.7781 20.8109 1.01114e-18)
(37.3054 17.5651 6.74879e-18)
(37.8955 14.6274 -7.87942e-18)
(37.8969 11.9101 -1.90251e-18)
(37.3805 9.54608 5.7896e-18)
(36.507 7.60113 3.25744e-18)
(35.475 6.02544 1.60035e-18)
(34.41 4.74399 1.3515e-18)
(33.3653 3.69442 2.01517e-18)
(32.3659 2.82682 3.43698e-19)
(31.433 2.09517 -2.69968e-18)
(30.5712 1.43794 5.53784e-19)
(29.7156 0.796884 -2.72684e-19)
(28.8102 0.225056 3.47446e-20)
(27.8668 -0.260646 -3.57191e-20)
(26.9106 -0.671908 1.00491e-18)
(25.9477 -1.01769 -2.39715e-19)
(25.0165 -1.29447 -3.20318e-18)
(24.1426 -1.50583 0)
(23.3053 -1.66695 -4.85517e-18)
(22.489 -1.7777 0)
(21.7132 -1.82304 1.30735e-17)
(21.0082 -1.82924 -7.80673e-18)
(20.3685 -1.82274 8.56004e-18)
(19.7717 -1.80771 -9.3532e-18)
(19.2031 -1.78467 1.06871e-17)
(18.6548 -1.75513 -1.08126e-17)
(18.1196 -1.71985 3.47185e-19)
(17.5895 -1.67879 -1.19119e-17)
(17.0562 -1.63131 0)
(16.5105 -1.57653 0)
(15.9501 -1.51304 0)
(15.3512 -1.43876 0)
(14.7446 -1.3483 0)
(13.9556 -1.24341 -1.29186e-19)
(13.4502 -1.07305 1.72372e-17)
(11.6562 -1.11209 -1.78716e-17)
(14.9991 21.7966 0)
(20.3503 24.3691 -5.64669e-20)
(26.0152 24.6945 -1.76554e-19)
(30.7543 23.1163 1.64789e-18)
(34.0804 20.5437 1.09592e-18)
(36.1208 17.75 -1.27446e-17)
(37.2579 15.1088 6.30295e-18)
(37.786 12.6195 8.24688e-18)
(37.7842 10.3546 -1.42825e-18)
(37.3543 8.39969 -1.41709e-18)
(36.6607 6.76371 -2.33213e-18)
(35.8354 5.40174 -5.21911e-20)
(34.9518 4.26337 2.37724e-18)
(34.0521 3.30673 -1.19747e-18)
(33.1703 2.49306 1.30398e-18)
(32.3239 1.76929 -9.96302e-19)
(31.4691 1.07714 0)
(30.5635 0.451662 5.98232e-22)
(29.617 -0.0850849 7.37269e-20)
(28.6549 -0.540557 -6.0294e-19)
(27.6846 -0.924592 2.6666e-19)
(26.7447 -1.23322 2.58304e-18)
(25.8602 -1.47003 -3.58179e-19)
(25.0118 -1.65124 3.78388e-18)
(24.1864 -1.77941 -4.40738e-18)
(23.4015 -1.84262 -5.06194e-18)
(22.6823 -1.86214 5.671e-18)
(22.0247 -1.86359 -6.23014e-18)
(21.4086 -1.85379 6.76525e-18)
(20.8205 -1.83412 0)
(20.2529 -1.80621 -7.7878e-18)
(19.6993 -1.77098 7.7654e-18)
(19.1525 -1.72848 9.3529e-18)
(18.6044 -1.67802 9.29962e-18)
(18.0463 -1.61868 -9.8206e-18)
(17.476 -1.54842 0)
(16.8722 -1.46582 0)
(16.2601 -1.36101 -1.82427e-19)
(15.4916 -1.24423 1.23152e-17)
(14.9451 -1.0318 1.28237e-17)
(13.3854 -0.989717 -6.52883e-20)
(16.6687 19.4003 0)
(20.5064 21.624 -3.06699e-18)
(24.8768 22.5542 1.90542e-19)
(29.0499 21.9623 -1.18196e-19)
(32.4015 20.2322 -2.28006e-19)
(34.7409 17.9516 5.14021e-18)
(36.2228 15.56 8.71383e-20)
(37.0782 13.2128 -1.18689e-17)
(37.4176 11.0185 -3.52583e-18)
(37.3249 9.06848 1.9397e-18)
(36.9295 7.39759 -1.4564e-18)
(36.3569 5.98391 -1.72229e-19)
(35.6859 4.78737 -2.5556e-18)
(34.9608 3.77035 5.15904e-20)
(34.2138 2.8972 2.95497e-19)
(33.4658 2.12265 -2.34458e-19)
(32.6923 1.39246 1.81112e-19)
(31.8593 0.725701 0)
(30.9711 0.14613 -6.04294e-20)
(30.052 -0.349452 2.55598e-19)
(29.1139 -0.770211 0)
(28.1982 -1.11088 0)
(27.3315 -1.37429 6.98854e-19)
(26.4975 -1.5771 1.54301e-18)
(25.6861 -1.72423 4.89903e-18)
(24.9111 -1.80713 3.60166e-18)
(24.1942 -1.84275 0)
(23.5334 -1.85533 6.4867e-19)
(22.9125 -1.85356 4.78217e-18)
(22.3187 -1.8395 0)
(21.7448 -1.81496 1.18895e-20)
(21.185 -1.78115 -6.65985e-18)
(20.6325 -1.73826 7.03902e-18)
(20.08 -1.68558 -7.90636e-18)
(19.5195 -1.62211 7.81229e-18)
(18.949 -1.54527 -1.81412e-20)
(18.3501 -1.454 2.56819e-19)
(17.7432 -1.33515 -8.77178e-18)
(17.0046 -1.20269 -9.54554e-18)
(16.4504 -0.958101 -3.81884e-20)
(15.0916 -0.832676 9.97451e-18)
(18.1354 17.3304 -4.02793e-19)
(20.9436 19.1237 2.98093e-18)
(24.2018 20.2688 -1.97296e-18)
(27.6299 20.3935 -9.5264e-19)
(30.7614 19.4823 -1.18527e-18)
(33.2506 17.8351 3.12993e-18)
(35.0211 15.8311 -1.05623e-18)
(36.1712 13.7108 4.24499e-18)
(36.7962 11.6352 4.01694e-18)
(36.9751 9.71518 -2.39712e-18)
(36.8164 8.01692 2.54354e-18)
(36.4397 6.5529 1.03544e-18)
(35.9343 5.30112 9.44089e-19)
(35.3542 4.22943 -6.982e-19)
(34.7339 3.30458 6.38422e-19)
(34.0957 2.48763 -2.62939e-19)
(33.4282 1.72975 1.12135e-19)
(32.702 1.03407 -3.08118e-20)
(31.9127 0.42038 1.19243e-19)
(31.0786 -0.110143 -4.33517e-19)
(30.2129 -0.564341 1.01666e-18)
(29.3573 -0.935375 9.69911e-20)
(28.5397 -1.22493 -4.8937e-19)
(27.7482 -1.44978 -5.8038e-18)
(26.976 -1.61672 1.48094e-18)
(26.2341 -1.72071 -8.44227e-18)
(25.5402 -1.77492 9.02544e-19)
(24.8951 -1.80108 4.12986e-18)
(24.2864 -1.80928 -4.48424e-18)
(23.703 -1.80248 6.16834e-19)
(23.1382 -1.78279 5.16641e-18)
(22.5865 -1.75166 -6.65003e-19)
(22.0422 -1.70947 -1.32893e-20)
(21.4983 -1.65546 0)
(20.9479 -1.58854 -5.94693e-18)
(20.3894 -1.50575 -4.09905e-19)
(19.8075 -1.406 -4.45028e-19)
(19.2188 -1.27437 7.76137e-18)
(18.5228 -1.12505 0)
(17.9836 -0.858662 -1.59e-17)
(16.8191 -0.673128 0)
(19.3954 15.5427 0)
(21.5088 16.9419 -3.96983e-18)
(23.9244 18.0369 2.86069e-18)
(26.6059 18.5296 -3.03106e-19)
(29.3074 18.247 7.07165e-19)
(31.7178 17.252 -2.1649e-21)
(33.6424 15.7647 -9.10329e-19)
(35.0436 14.0027 0)
(35.9484 12.1482 -1.69788e-18)
(36.4039 10.3323 1.89918e-18)
(36.4893 8.65093 -3.22243e-18)
(36.3082 7.15463 -1.62236e-18)
(35.9543 5.85052 6.89524e-19)
(35.4944 4.72165 0)
(34.9724 3.74245 -6.33024e-19)
(34.4173 2.88067 6.46279e-19)
(33.8312 2.09402 6.20234e-20)
(33.1957 1.37346 1.15208e-19)
(32.5021 0.731456 1.66305e-19)
(31.7606 0.171376 -1.06559e-19)
(30.9819 -0.311851 1.32796e-20)
(30.2047 -0.71009 0)
(29.4559 -1.02382 0)
(28.727 -1.26972 2.14173e-18)
(28.0139 -1.45599 0)
(27.3248 -1.58104 5.04726e-21)
(26.6734 -1.65498 0)
(26.0624 -1.69638 -3.43132e-18)
(25.4834 -1.71605 3.70009e-18)
(24.9271 -1.71796 0)
(24.3875 -1.70446 0)
(23.8597 -1.67722 0)
(23.3387 -1.63676 -4.73275e-18)
(22.8186 -1.58238 -5.58643e-18)
(22.2933 -1.51286 5.85034e-18)
(21.7617 -1.42504 0)
(21.212 -1.31756 -5.67991e-18)
(20.6573 -1.17529 3.75758e-19)
(20.0206 -1.01041 5.76942e-18)
(19.5161 -0.733878 6.41631e-18)
(18.5454 -0.512601 0)
(20.4742 13.9887 -6.60529e-19)
(22.1116 15.0642 5.6608e-18)
(23.924 15.9986 -4.29202e-18)
(25.9653 16.6069 0)
(28.1541 16.7109 -2.11307e-18)
(30.2931 16.2466 -2.03361e-19)
(32.1856 15.2867 0)
(33.7195 13.9661 0)
(34.8491 12.4358 2.2587e-19)
(35.5697 10.8237 9.77412e-19)
(35.9174 9.2394 1.23058e-18)
(35.9629 7.7631 0)
(35.7884 6.43467 0)
(35.4653 5.26092 -6.2156e-19)
(35.0465 4.23039 0)
(34.5694 3.32095 0)
(34.0496 2.49974 0)
(33.4823 1.75224 -4.47559e-20)
(32.8618 1.08287 -5.20428e-19)
(32.1948 0.49472 5.25834e-19)
(31.4908 -0.0155728 -4.62143e-19)
(30.7858 -0.438643 0)
(30.1048 -0.774525 0)
(29.4406 -1.04017 0)
(28.7912 -1.24478 0)
(28.1617 -1.38981 2.34082e-18)
(27.562 -1.48337 -2.59687e-18)
(26.9957 -1.54069 2.83719e-18)
(26.4573 -1.5726 -6.13551e-18)
(25.9394 -1.58396 3.27805e-18)
(25.4367 -1.57743 -3.48429e-18)
(24.9451 -1.55482 0)
(24.4603 -1.51682 0)
(23.9771 -1.46281 1.73942e-20)
(23.4907 -1.39151 0)
(23.0005 -1.29977 -4.43234e-18)
(22.498 -1.18589 9.25982e-18)
(21.9937 -1.03602 3.04489e-19)
(21.4326 -0.859379 -3.4872e-19)
(20.9804 -0.58432 0)
(20.2021 -0.347548 -4.97704e-18)
(21.3946 12.631 0)
(22.6936 13.4532 -1.39119e-19)
(24.0828 14.206 1.56671e-18)
(25.6303 14.7873 2.70563e-18)
(27.3374 15.069 -9.42592e-19)
(29.1129 14.9576 1.8078e-18)
(30.8172 14.4356 0)
(32.3312 13.5554 0)
(33.5714 12.4061 0)
(34.4894 11.0838 0)
(35.0759 9.68751 7.24025e-19)
(35.3592 8.3079 -1.5391e-18)
(35.3935 7.00913 5.33742e-19)
(35.2398 5.82383 -4.39823e-19)
(34.9524 4.7605 0)
(34.5742 3.81151 -1.87619e-19)
(34.1315 2.95612 1.46339e-19)
(33.6324 2.1803 -2.08094e-20)
(33.0776 1.48276 0)
(32.4735 0.865685 0)
(31.8298 0.327784 0)
(31.1823 -0.120156 0)
(30.5561 -0.478027 0)
(29.9461 -0.763229 0)
(29.3514 -0.985753 -1.72964e-18)
(28.7752 -1.14975 0)
(28.2241 -1.26241 3.27288e-18)
(27.7013 -1.33599 -3.48673e-18)
(27.2036 -1.38064 5.06884e-18)
(26.7256 -1.40186 -2.71327e-18)
(26.2625 -1.40272 1.48249e-18)
(25.8108 -1.38517 -6.05908e-18)
(25.367 -1.3501 1.56073e-18)
(24.9267 -1.29709 4.1911e-18)
(24.4864 -1.2249 -8.53943e-19)
(24.0458 -1.13065 3.63264e-18)
(23.5999 -1.0125 -3.77422e-18)
(23.1566 -0.858948 -4.92439e-19)
(22.6808 -0.676465 4.49756e-19)
(22.2918 -0.413373 0)
(21.6957 -0.176649 4.04634e-18)
(22.1771 11.4404 2.72569e-19)
(23.2269 12.0674 0)
(24.3161 12.6558 7.00876e-18)
(25.5019 13.1514 -9.39393e-18)
(26.8136 13.476 5.54887e-18)
(28.2246 13.5529 -3.73104e-18)
(29.6591 13.3345 1.07713e-18)
(31.0279 12.8186 -1.67086e-18)
(32.2499 12.0388 4.24459e-19)
(33.2579 11.0452 5.97215e-19)
(34.0116 9.90706 1.31253e-19)
(34.5008 8.70284 3.50526e-19)
(34.7442 7.50356 2.41601e-19)
(34.7795 6.35979 -3.47056e-19)
(34.6509 5.29988 2.80826e-19)
(34.3999 4.33345 9.75451e-20)
(34.0584 3.45452 0)
(33.6441 2.65539 4.77499e-20)
(33.1648 1.93326 -9.05321e-19)
(32.6286 1.28924 9.2107e-19)
(32.0457 0.723651 1.5825e-18)
(31.4515 0.249783 -1.63104e-18)
(30.8727 -0.131197 0)
(30.3074 -0.436999 0)
(29.7569 -0.678274 2.92992e-18)
(29.224 -0.861197 -1.53265e-18)
(28.713 -0.992783 1.84128e-18)
(28.2266 -1.08306 1.29264e-19)
(27.7633 -1.14118 -8.33307e-18)
(27.3192 -1.17302 2.16476e-18)
(26.8906 -1.18205 2.36351e-18)
(26.4745 -1.17041 4.97039e-18)
(26.0682 -1.13919 -1.32867e-18)
(25.6682 -1.08827 -1.37679e-18)
(25.2722 -1.01665 0)
(24.8804 -0.922056 -2.9274e-18)
(24.4906 -0.802809 0)
(24.1087 -0.650512 0)
(23.7151 -0.46947 -3.65557e-18)
(23.3892 -0.22689 -2.65691e-18)
(22.9487 -0.00120061 -1.9995e-19)
(22.8392 10.3941 -1.21943e-19)
(23.7 10.8715 0)
(24.571 11.3234 -3.19889e-18)
(25.4953 11.7213 -5.64216e-18)
(26.5052 12.0209 5.76111e-18)
(27.6029 12.1715 1.88088e-18)
(28.7568 12.1283 0)
(29.9153 11.8687 -1.56669e-18)
(31.0189 11.3898 0)
(32.0071 10.7059 6.26966e-19)
(32.8299 9.8508 6.4249e-19)
(33.454 8.87654 -2.83635e-19)
(33.8681 7.84241 5.20605e-19)
(34.0824 6.80204 6.07334e-20)
(34.1217 5.79592 1.53517e-19)
(34.0174 4.84882 -4.81352e-19)
(33.7997 3.96995 -5.63141e-19)
(33.4906 3.16168 1.12397e-18)
(33.1034 2.42452 0)
(32.6488 1.76033 1.19365e-18)
(32.1377 1.17123 -1.14268e-18)
(31.6044 0.673371 1.99715e-19)
(31.0767 0.269578 -4.66872e-19)
(30.5565 -0.0576229 0)
(30.0475 -0.318891 0)
(29.553 -0.521412 0)
(29.0768 -0.67229 3.02318e-18)
(28.6216 -0.780121 -3.01692e-18)
(28.1871 -0.852992 1.75635e-18)
(27.7711 -0.896787 1.81555e-18)
(27.371 -0.915303 0)
(26.9844 -0.910981 -1.14822e-20)
(26.6093 -0.885232 -4.27655e-18)
(26.2434 -0.838371 3.26612e-18)
(25.8851 -0.769843 3.41645e-18)
(25.5354 -0.678199 2.39266e-18)
(25.1942 -0.56233 1.24529e-18)
(24.8656 -0.417016 -2.49727e-18)
(24.5405 -0.245217 9.56058e-19)
(24.2681 -0.0291496 2.9892e-18)
(23.9435 0.177191 0)
(23.3964 9.4739 -1.05379e-19)
(24.11 9.83651 -3.1355e-18)
(24.8179 10.1795 -2.84685e-19)
(25.5512 10.488 2.10428e-18)
(26.3372 10.7373 -1.23341e-17)
(27.1876 10.8975 3.99414e-18)
(28.0938 10.9366 -7.98925e-18)
(29.0317 10.8309 1.34285e-18)
(29.9665 10.5638 3.23428e-18)
(30.8552 10.1281 -5.52949e-18)
(31.6549 9.5322 -5.36396e-19)
(32.3271 8.80046 0)
(32.8445 7.97077 -8.3368e-19)
(33.1956 7.08612 -6.19408e-19)
(33.3843 6.1869 -1.03048e-18)
(33.4261 5.3053 1.76558e-18)
(33.3424 4.46193 -4.79174e-19)
(33.153 3.66953 -1.58723e-18)
(32.8727 2.93507 3.2207e-18)
(32.514 2.26377 1.40199e-19)
(32.0883 1.66034 -4.62835e-18)
(31.6277 1.14432 2.38938e-18)
(31.1606 0.72106 -3.15605e-18)
(30.6926 0.374212 3.39352e-18)
(30.2295 0.0935699 0)
(29.776 -0.128356 -1.7325e-18)
(29.3359 -0.298587 2.32016e-18)
(28.9122 -0.424622 1.29844e-18)
(28.5058 -0.5135 -2.08969e-18)
(28.1161 -0.570843 1.54971e-18)
(27.7418 -0.600674 -3.05576e-18)
(27.3816 -0.605757 -3.32341e-18)
(27.0341 -0.587867 3.40914e-18)
(26.6978 -0.547835 9.27756e-19)
(26.3721 -0.485714 -5.57108e-18)
(26.0584 -0.401049 2.83954e-18)
(25.7575 -0.2936 -9.99276e-19)
(25.4723 -0.160919 1.01492e-18)
(25.1995 -0.00541242 -2.59034e-18)
(24.9682 0.180875 2.55672e-19)
(24.7203 0.361349 2.56635e-19)
(23.8625 8.66486 0)
(24.4589 8.93935 -2.58578e-18)
(25.0413 9.19699 5.46385e-18)
(25.6321 9.4306 4.97932e-18)
(26.2526 9.62619 -4.22298e-18)
(26.9153 9.767 1.27109e-17)
(27.6215 9.83277 7.28969e-18)
(28.3624 9.80605 0)
(29.1212 9.66935 6.77054e-18)
(29.8725 9.40802 -5.5422e-18)
(30.5867 9.01655 -1.25558e-18)
(31.2318 8.50074 0)
(31.7782 7.87786 6.02469e-19)
(32.2042 7.17435 -2.24625e-18)
(32.4988 6.42107 1.97808e-18)
(32.6622 5.64822 0)
(32.7034 4.88053 -2.83417e-19)
(32.6347 4.13723 -3.1501e-18)
(32.468 3.43157 2.72665e-18)
(32.2145 2.77345 -1.4628e-19)
(31.8851 2.17115 2.28295e-18)
(31.5083 1.64785 -4.99771e-18)
(31.1117 1.21234 -5.67551e-20)
(30.7046 0.8506 2.93471e-18)
(30.2948 0.553656 2.14464e-19)
(29.8883 0.314468 -4.56524e-19)
(29.4893 0.126418 -4.1154e-18)
(29.1016 -0.0171498 -2.45558e-19)
(28.727 -0.122391 4.44039e-18)
(28.3663 -0.194485 6.04003e-19)
(28.0195 -0.237432 0)
(27.6861 -0.254189 2.04678e-18)
(27.3659 -0.246878 -2.72244e-18)
(27.0579 -0.216893 2.18502e-18)
(26.7624 -0.164986 -1.4657e-18)
(26.4808 -0.0916743 -7.72843e-19)
(26.2147 0.00236515 7.82559e-19)
(25.9655 0.117548 1.61357e-18)
(25.7326 0.251545 8.31318e-19)
(25.5327 0.407026 0)
(25.3337 0.558036 0)
(24.2498 7.95446 0)
(24.7511 8.16117 9.41034e-18)
(25.2345 8.35268 -9.35307e-18)
(25.7164 8.5261 0)
(26.2128 8.67347 0)
(26.7348 8.7856 -1.8181e-17)
(27.2864 8.85047 1.11987e-17)
(27.8661 8.85682 1.24463e-17)
(28.4674 8.79107 -1.25116e-17)
(29.0774 8.6392 0)
(29.6787 8.39101 1.05084e-17)
(30.2494 8.04288 -9.44925e-18)
(30.7655 7.59888 8.79109e-18)
(31.205 7.07079 -7.61565e-18)
(31.5509 6.47699 6.97793e-19)
(31.7934 5.83952 4.15751e-18)
(31.931 5.18027 -2.33822e-18)
(31.9671 4.51924 0)
(31.9073 3.87256 3.98226e-18)
(31.7588 3.25361 -3.4138e-18)
(31.5299 2.67392 -4.25298e-18)
(31.2437 2.15987 -2.92891e-19)
(30.9253 1.72409 -4.15467e-19)
(30.5866 1.35611 5.17457e-18)
(30.2373 1.04909 -3.16757e-18)
(29.8841 0.797182 3.01982e-18)
(29.5324 0.594663 -3.43178e-18)
(29.1863 0.435805 -1.84003e-19)
(28.849 0.315304 2.90828e-19)
(28.5221 0.228515 3.37417e-18)
(28.2067 0.171598 4.22097e-18)
(27.9033 0.141488 -5.89232e-18)
(27.6123 0.135779 -7.39286e-20)
(27.3337 0.152589 2.56976e-18)
(27.0679 0.190575 -2.97077e-19)
(26.8168 0.248477 -2.48366e-18)
(26.5816 0.324896 1.85022e-18)
(26.3632 0.418954 -1.62385e-18)
(26.1616 0.528272 1.29283e-18)
(25.9864 0.65315 -3.27419e-19)
(25.82 0.77402 0)
(24.5692 7.33203 -4.35851e-18)
(24.992 7.48648 4.29689e-18)
(25.3959 7.62703 0)
(25.7926 7.75326 0)
(26.1943 7.86058 0)
(26.6099 7.94405 -6.92823e-18)
(27.044 7.99672 1.91543e-17)
(27.4977 8.01182 -1.25792e-17)
(27.9694 7.98005 2.98121e-18)
(28.4533 7.89066 2.82223e-18)
(28.9405 7.73409 1.24073e-17)
(29.418 7.50352 -6.99017e-19)
(29.8693 7.19666 -3.9614e-18)
(30.2771 6.81633 -8.43574e-18)
(30.6249 6.37064 -5.38e-18)
(30.9001 5.87242 5.65128e-18)
(31.0948 5.33715 -7.77447e-19)
(31.2058 4.78101 7.08953e-18)
(31.2323 4.21902 -1.34275e-17)
(31.1765 3.66509 -2.76846e-19)
(31.0425 3.13213 7.63826e-18)
(30.8464 2.64781 2.72835e-19)
(30.609 2.228 -4.85154e-18)
(30.3432 1.86647 4.57539e-18)
(30.0592 1.55915 5.16187e-18)
(29.7647 1.30205 -5.19745e-18)
(29.4656 1.09083 2.23714e-20)
(29.1667 0.920939 -4.69693e-20)
(28.8719 0.788008 0)
(28.5838 0.688046 -1.02386e-19)
(28.3042 0.617544 1.06311e-19)
(28.0345 0.573507 0)
(27.7757 0.553395 1.13477e-19)
(27.5282 0.554989 -2.35102e-19)
(27.293 0.576517 2.41738e-19)
(27.0715 0.616242 0)
(26.865 0.672325 -2.15217e-18)
(26.6738 0.743191 1.63822e-18)
(26.498 0.826552 0)
(26.3431 0.921868 7.92248e-19)
(26.1999 1.01387 -5.1581e-19)
(24.8301 6.7881 1.92709e-18)
(25.1875 6.9022 1.44239e-17)
(25.5262 7.00369 -1.42334e-17)
(25.855 7.09356 1.98403e-17)
(26.183 7.16906 -1.29906e-17)
(26.5174 7.22761 5.99662e-18)
(26.8621 7.26526 2.35073e-19)
(27.219 7.27803 -2.76066e-17)
(27.5885 7.25991 1.93445e-17)
(27.9685 7.20347 1.75075e-17)
(28.3547 7.10138 -3.29817e-18)
(28.7401 6.94728 -2.14949e-17)
(29.1147 6.73675 2.02952e-18)
(29.4666 6.46844 -2.22963e-18)
(29.7831 6.14452 -1.80588e-18)
(30.0527 5.77079 9.40786e-18)
(30.2662 5.35622 -8.48002e-18)
(30.417 4.91159 7.23869e-18)
(30.5006 4.44823 1.60434e-19)
(30.5148 3.97787 -7.29051e-18)
(30.4598 3.51237 8.62002e-18)
(30.3442 3.07799 -7.89485e-18)
(30.1837 2.69201 -2.85008e-19)
(29.9898 2.35214 -8.91239e-18)
(29.7725 2.05716 8.9496e-18)
(29.5393 1.80517 -4.7193e-18)
(29.2963 1.59351 4.7182e-18)
(29.0487 1.41904 3.8832e-20)
(28.8007 1.2785 5.32555e-18)
(28.5555 1.16869 -5.25019e-18)
(28.3157 1.08662 5.60409e-18)
(28.083 1.02959 -5.69344e-18)
(27.859 0.995111 -9.29094e-20)
(27.6444 0.980877 3.07795e-18)
(27.4404 0.984944 -6.11979e-18)
(27.2483 1.0054 6.33683e-18)
(27.0692 1.04029 -4.7176e-18)
(26.9031 1.08776 3.37106e-18)
(26.7502 1.14574 -1.64218e-18)
(26.6133 1.21348 0)
(26.4883 1.27898 4.10024e-19)
(25.0405 6.31332 -1.67907e-18)
(25.3427 6.39623 -1.25315e-17)
(25.6272 6.46814 1.23325e-17)
(25.9008 6.53057 5.90925e-18)
(26.1704 6.58175 -3.33808e-17)
(26.4415 6.62039 3.28007e-17)
(26.7175 6.64426 -1.0383e-17)
(27.0003 6.65103 -1.48919e-17)
(27.2909 6.63688 2.47469e-17)
(27.5887 6.59687 -1.84454e-17)
(27.8918 6.5259 2.31349e-17)
(28.1968 6.41906 1.92413e-17)
(28.4977 6.27224 -1.72208e-17)
(28.7873 6.08276 1.90516e-18)
(29.0569 5.85002 1.75998e-17)
(29.2975 5.57599 -1.63541e-17)
(29.5014 5.26501 8.50254e-19)
(29.6617 4.92321 1.43304e-17)
(29.7726 4.55783 -1.60616e-17)
(29.8299 4.17725 9.34493e-19)
(29.831 3.79071 -1.77883e-18)
(29.7787 3.42063 -7.36764e-18)
(29.6831 3.08352 8.28367e-18)
(29.5537 2.77983 7.22546e-19)
(29.3988 2.51051 -2.3762e-19)
(29.2251 2.27543 0)
(29.038 2.07352 -2.66426e-19)
(28.8428 1.90305 -2.73628e-19)
(28.6435 1.7619 2.80756e-19)
(28.4437 1.64778 0)
(28.2461 1.55837 0)
(28.0527 1.49143 -4.83994e-18)
(27.8652 1.44479 4.8313e-18)
(27.6849 1.41628 3.11764e-19)
(27.5127 1.40406 -7.94181e-20)
(27.35 1.40633 0)
(27.1977 1.42125 0)
(27.0556 1.44698 1.65434e-18)
(26.924 1.48179 -2.98952e-18)
(26.8045 1.52497 1.32951e-18)
(26.6956 1.56724 -2.51854e-19)
(25.2019 5.91821 1.47967e-17)
(25.459 5.97825 -1.16152e-17)
(25.7 6.02899 -1.11163e-17)
(25.9299 6.07186 2.13386e-17)
(26.1542 6.10564 -1.07487e-17)
(26.3772 6.12978 -1.00552e-17)
(26.6018 6.14304 1.48631e-17)
(26.8297 6.14397 0)
(27.0618 6.13009 4.94036e-18)
(27.2983 6.0981 0)
(27.5382 6.04451 -3.96614e-17)
(27.7799 5.9658 3.541e-17)
(28.0199 5.85874 0)
(28.2538 5.72076 -4.27316e-18)
(28.4758 5.55042 1.40888e-17)
(28.6798 5.34783 -3.37844e-17)
(28.8597 5.11492 1.56292e-17)
(29.01 4.85488 1.96144e-18)
(29.1254 4.57192 -1.05299e-18)
(29.2012 4.27147 1.04172e-18)
(29.2338 3.96003 1.56406e-17)
(29.2228 3.6554 -2.86358e-17)
(29.1739 3.37184 1.43617e-17)
(29.0941 3.11115 -4.55458e-19)
(28.9898 2.87537 4.92226e-19)
(28.8662 2.66547 5.00216e-19)
(28.7282 2.4815 2.44321e-19)
(28.5801 2.32276 2.50424e-19)
(28.4258 2.18811 -8.67395e-18)
(28.2685 2.07607 8.39963e-18)
(28.1108 1.98499 8.73446e-18)
(27.9549 1.91314 -1.31492e-17)
(27.8025 1.85879 8.93335e-18)
(27.6547 1.82009 -4.77399e-18)
(27.5127 1.79547 5.74648e-19)
(27.3777 1.78339 0)
(27.2504 1.78229 -2.35705e-18)
(27.1309 1.79053 2.04875e-18)
(27.0192 1.8067 -2.94082e-19)
(26.9164 1.83021 -5.99081e-19)
(26.8225 1.85408 5.11883e-19)
(25.321 5.60308 -2.69631e-18)
(25.5429 5.6469 0)
(25.75 5.68274 -1.00098e-17)
(25.9464 5.71184 -9.56742e-18)
(26.1364 5.73332 1.97524e-17)
(26.3235 5.74707 0)
(26.5102 5.75237 2.80285e-17)
(26.6979 5.74833 -2.81486e-17)
(26.8876 5.73325 -8.99752e-18)
(27.0793 5.70488 -4.46186e-17)
(27.273 5.66082 3.5652e-17)
(27.4675 5.59858 4.40301e-18)
(27.6608 5.51578 0)
(27.8501 5.41038 4.13626e-17)
(28.0316 5.28095 -3.31426e-17)
(28.2012 5.12699 1.79497e-17)
(28.3545 4.94918 -2.01288e-17)
(28.4871 4.74915 2.92437e-17)
(28.5949 4.52926 -3.10402e-17)
(28.6738 4.29287 -1.82446e-18)
(28.7202 4.04432 0)
(28.7321 3.79725 1.41949e-17)
(28.7126 3.56332 -3.01382e-17)
(28.6666 3.34465 1.50557e-17)
(28.5988 3.1436 -1.43826e-18)
(28.5131 2.96161 -8.24301e-18)
(28.4135 2.7993 1.66149e-17)
(28.3034 2.65667 -6.84458e-18)
(28.1862 2.53319 -1.01536e-18)
(28.0646 2.42801 0)
(27.9411 2.34003 -5.18805e-19)
(27.8175 2.26799 8.38413e-18)
(27.6955 2.2106 -4.11272e-18)
(27.5763 2.16637 -3.68318e-18)
(27.4607 2.13404 -5.3432e-19)
(27.35 2.11237 5.40567e-19)
(27.2449 2.10014 5.4353e-19)
(27.1452 2.09591 2.73932e-18)
(27.0514 2.09861 -2.7326e-18)
(26.9639 2.10776 1.64363e-18)
(26.8836 2.11817 -2.68509e-19)
(25.4108 5.34784 0)
(25.6044 5.37983 0)
(25.7846 5.40495 1.85432e-17)
(25.9546 5.42422 -3.67327e-17)
(26.1178 5.43697 1.84806e-17)
(26.2774 5.44335 -1.81291e-17)
(26.4353 5.44298 0)
(26.5927 5.43524 -4.38925e-17)
(26.7505 5.41897 3.53407e-17)
(26.909 5.39258 4.29254e-17)
(27.0681 5.35437 -3.45445e-17)
(27.2271 5.30258 4.41234e-18)
(27.3848 5.23549 0)
(27.5393 5.15155 1.59788e-19)
(27.6881 5.04959 -4.13523e-18)
(27.8283 4.92903 -4.09001e-18)
(27.9569 4.79005 -1.94979e-19)
(28.0706 4.63343 0)
(28.1662 4.46052 -1.02487e-19)
(28.2404 4.27341 0)
(28.2903 4.07496 -1.71694e-17)
(28.3134 3.87546 1.5106e-17)
(28.3111 3.68415 0)
(28.287 3.503 1.50973e-17)
(28.2442 3.33423 -1.40864e-17)
(28.186 3.17936 1.52269e-17)
(28.115 3.03924 -1.70609e-17)
(28.0342 2.91418 -1.917e-18)
(27.9463 2.80408 9.53686e-19)
(27.8535 2.70848 9.85107e-19)
(27.7579 2.62668 4.86207e-19)
(27.6611 2.55782 6.96461e-18)
(27.5646 2.50095 -8.92302e-18)
(27.4694 2.45493 2.52373e-18)
(27.3764 2.41879 -2.9952e-18)
(27.2866 2.39159 -5.0442e-19)
(27.2005 2.37237 1.53173e-18)
(27.1182 2.35997 -2.53338e-18)
(27.0401 2.35354 -2.04256e-18)
(26.9665 2.35272 1.01402e-18)
(26.8985 2.35375 -7.51674e-19)
(25.4797 5.13697 -8.68343e-18)
(25.6502 5.16018 8.69642e-18)
(25.8083 5.17747 -1.71522e-17)
(25.9568 5.18963 6.73708e-20)
(26.0987 5.19611 3.39175e-17)
(26.2363 5.19724 1.6817e-17)
(26.3716 5.19282 3.34289e-17)
(26.5056 5.18245 -4.53672e-19)
(26.6389 5.16528 1.63492e-17)
(26.7718 5.14018 -4.17695e-17)
(26.9044 5.10592 8.30939e-18)
(27.0362 5.06125 -3.22662e-17)
(27.1665 5.00492 6.47793e-17)
(27.2938 4.93581 -4.43473e-17)
(27.4165 4.85303 3.89512e-18)
(27.5326 4.75606 7.84203e-18)
(27.6398 4.64493 3.08987e-17)
(27.7359 4.52004 -3.10862e-17)
(27.8184 4.38217 -3.2678e-17)
(27.8849 4.23264 3.44691e-17)
(27.933 4.07336 -9.42519e-18)
(27.9602 3.91211 1.6907e-17)
(27.9673 3.75608 1.89164e-18)
(27.9567 3.60693 0)
(27.9308 3.46654 1.48414e-17)
(27.8917 3.3363 -1.47499e-17)
(27.8417 3.21708 9.11969e-19)
(27.7829 3.10931 1.58627e-17)
(27.7175 3.01309 -1.48636e-17)
(27.6472 2.92822 -9.26079e-19)
(27.5738 2.85428 -7.55786e-18)
(27.4987 2.79068 8.44459e-18)
(27.423 2.73675 9.38781e-19)
(27.3476 2.69163 9.42076e-19)
(27.2734 2.6546 -3.80381e-18)
(27.2011 2.62496 7.60067e-18)
(27.1312 2.602 -2.83301e-18)
(27.0639 2.58476 0)
(26.9994 2.57261 9.48733e-19)
(26.9382 2.56528 0)
(26.8811 2.5601 4.67215e-19)
(25.5335 4.95999 1.57801e-17)
(25.6846 4.97658 -1.57679e-17)
(25.8244 4.98806 4.6878e-17)
(25.9552 4.995 -1.60692e-17)
(26.0794 4.99696 -4.73515e-17)
(26.1993 4.99434 0)
(26.3164 4.98709 -4.72419e-17)
(26.4316 4.97493 3.18058e-17)
(26.5455 4.95725 1.96278e-19)
(26.6583 4.93321 3.9218e-17)
(26.7702 4.90193 -3.15134e-17)
(26.8808 4.86249 -1.5641e-17)
(26.9895 4.81401 -7.85642e-18)
(27.0955 4.75567 3.84164e-17)
(27.1974 4.68682 -2.31112e-17)
(27.2938 4.60707 -3.75136e-18)
(27.3833 4.51641 -2.2618e-17)
(27.464 4.41508 3.02003e-17)
(27.5343 4.30357 3.66907e-18)
(27.5923 4.18274 -3.3346e-17)
(27.636 4.05388 -3.56402e-18)
(27.6636 3.92293 1.92454e-18)
(27.6752 3.79549 2.73398e-17)
(27.6727 3.67283 -1.45192e-17)
(27.6576 3.55651 1.44022e-17)
(27.6318 3.44768 -1.4434e-17)
(27.5967 3.34711 1.43394e-17)
(27.5541 3.25526 -1.62315e-17)
(27.5056 3.17231 1.4314e-17)
(27.4526 3.09819 -1.81088e-18)
(27.3965 3.03266 0)
(27.3385 2.97533 -7.20179e-18)
(27.2794 2.92572 7.14401e-18)
(27.2201 2.88321 -8.08959e-18)
(27.1612 2.84726 5.34239e-18)
(27.1033 2.81735 0)
(27.0469 2.79296 -8.87934e-19)
(26.9922 2.77333 0)
(26.9395 2.75799 0)
(26.8889 2.74672 1.77176e-18)
(26.8415 2.7377 -8.71808e-19)
(25.5761 4.80952 -7.1855e-18)
(25.7107 4.82106 1.43205e-17)
(25.8349 4.8282 0)
(25.9508 4.8313 -2.87919e-17)
(26.0604 4.82997 2.93017e-17)
(26.1656 4.82469 0)
(26.2678 4.8155 1.4709e-17)
(26.3677 4.80219 -5.91347e-17)
(26.4659 4.78432 6.00992e-17)
(26.5626 4.76128 1.50219e-17)
(26.6579 4.7324 -7.41613e-18)
(26.7516 4.69704 7.39772e-18)
(26.8432 4.65455 1.48632e-17)
(26.9321 4.60435 0)
(27.0174 4.54599 2.20872e-17)
(27.098 4.47918 -2.15561e-19)
(27.1728 4.40395 -4.02315e-17)
(27.2405 4.32044 3.25944e-17)
(27.3 4.229 -2.89208e-17)
(27.3497 4.13025 -7.25514e-18)
(27.3884 4.02506 2.84917e-17)
(27.4143 3.91803 -3.18692e-17)
(27.4277 3.8135 -3.56252e-18)
(27.4297 3.71245 0)
(27.4216 3.6161 0)
(27.4047 3.52537 0)
(27.3801 3.44092 1.74552e-18)
(27.3492 3.36316 -3.50949e-20)
(27.3133 3.29227 0)
(27.2734 3.22827 1.69518e-18)
(27.2306 3.171 1.71868e-18)
(27.1858 3.12021 6.82447e-18)
(27.1398 3.07557 -1.35717e-17)
(27.0932 3.03661 -8.97547e-19)
(27.0466 3.00292 7.56749e-18)
(27.0004 2.97416 1.68818e-18)
(26.9552 2.94992 0)
(26.9109 2.92961 1.67556e-18)
(26.868 2.91287 -1.66707e-18)
(26.8265 2.89955 -3.45097e-21)
(26.7873 2.88843 8.15445e-19)
(25.61 4.68018 0)
(25.7305 4.68787 -6.53095e-18)
(25.8415 4.69175 0)
(25.9447 4.69199 5.30611e-17)
(26.0418 4.68829 -8.12043e-17)
(26.1347 4.68115 2.69735e-17)
(26.2244 4.67066 -1.37902e-16)
(26.3117 4.65669 5.59042e-17)
(26.397 4.6389 -6.98153e-17)
(26.4805 4.61684 4.25934e-17)
(26.5624 4.59003 0)
(26.6424 4.558 -5.64095e-17)
(26.7203 4.52028 3.55502e-17)
(26.7954 4.47648 -6.33823e-17)
(26.8673 4.42627 5.64736e-17)
(26.935 4.36948 5.58953e-17)
(26.9977 4.30613 -4.20441e-17)
(27.0547 4.23639 -3.43294e-18)
(27.1049 4.16048 0)
(27.1473 4.07888 3.42647e-17)
(27.1808 3.99223 -2.73553e-17)
(27.2043 3.90409 0)
(27.2177 3.81788 3.0351e-17)
(27.222 3.73432 -2.34501e-17)
(27.2183 3.65436 0)
(27.2074 3.57871 3.34729e-18)
(27.1902 3.5079 1.32568e-17)
(27.1677 3.44227 -2.46499e-17)
(27.141 3.382 2.45027e-17)
(27.1108 3.32711 -2.60273e-17)
(27.0781 3.27752 1.13202e-17)
(27.0435 3.23306 0)
(27.0077 3.19349 6.43381e-18)
(26.9711 3.15845 -4.79028e-18)
(26.9343 3.12767 1.59854e-18)
(26.8975 3.10087 4.77094e-18)
(26.8612 3.07776 -6.29098e-18)
(26.8255 3.05787 -1.56334e-18)
(26.7906 3.04096 1.56632e-18)
(26.7567 3.02686 1.55589e-18)
(26.7245 3.01484 0)
(25.6374 4.56799 0)
(25.7456 4.57272 -2.37438e-17)
(25.8451 4.57414 -2.38425e-17)
(25.9373 4.57228 4.92978e-17)
(26.0238 4.56687 4.98582e-17)
(26.1062 4.55846 2.52551e-17)
(26.1854 4.54715 2.56033e-17)
(26.2621 4.53286 -5.1847e-17)
(26.3367 4.51535 3.72275e-19)
(26.4093 4.49429 1.0604e-16)
(26.4801 4.46933 1.30297e-17)
(26.5489 4.44011 -6.71173e-17)
(26.6155 4.40632 1.33077e-17)
(26.6795 4.36768 -4.67634e-17)
(26.7404 4.32398 4.68943e-17)
(26.7976 4.27512 0)
(26.8505 4.22115 -6.58438e-18)
(26.8985 4.16222 0)
(26.9408 4.09852 2.63103e-17)
(26.9768 4.03041 -5.24529e-17)
(27.0056 3.95838 3.26384e-17)
(27.0263 3.88525 3.26567e-18)
(27.039 3.8137 0)
(27.0444 3.74426 -2.87756e-17)
(27.0433 3.67766 2.22203e-17)