# vtk DataFile Version 2.0
inlet
ASCII
DATASET POLYDATA
POINTS 122 float
-0.06 0 -0.005 -0.06 0 0.005 -0.06 0.000548389 0.005 -0.06 0.000548389
-0.005 -0.06 0.00110709 0.005 -0.06 0.00110709 -0.005 -0.06 0.00167628 0.005
-0.06 0.00167628 -0.005 -0.06 0.00225618 0.005 -0.06 0.00225618 -0.005 -0.06
0.00284697 0.005 -0.06 0.00284697 -0.005 -0.06 0.00344887 0.005 -0.06 0.00344887
-0.005 -0.06 0.00406208 0.005 -0.06 0.00406208 -0.005 -0.06 0.00468682 0.005
-0.06 0.00468682 -0.005 -0.06 0.00532329 0.005 -0.06 0.00532329 -0.005 -0.06
0.00597173 0.005 -0.06 0.00597173 -0.005 -0.06 0.00663236 0.005 -0.06 0.00663236
-0.005 -0.06 0.00730541 0.005 -0.06 0.00730541 -0.005 -0.06 0.0079911 0.005
-0.06 0.0079911 -0.005 -0.06 0.00868968 0.005 -0.06 0.00868968 -0.005 -0.06
0.00940139 0.005 -0.06 0.00940139 -0.005 -0.06 0.0101265 0.005 -0.06 0.0101265
-0.005 -0.06 0.0108652 0.005 -0.06 0.0108652 -0.005 -0.06 0.0116178 0.005
-0.06 0.0116178 -0.005 -0.06 0.0123845 0.005 -0.06 0.0123845 -0.005 -0.06
0.0131657 0.005 -0.06 0.0131657 -0.005 -0.06 0.0139615 0.005 -0.06 0.0139615
-0.005 -0.06 0.0147723 0.005 -0.06 0.0147723 -0.005 -0.06 0.0155984 0.005
-0.06 0.0155984 -0.005 -0.06 0.0164399 0.005 -0.06 0.0164399 -0.005 -0.06
0.0172973 0.005 -0.06 0.0172973 -0.005 -0.06 0.0181708 0.005 -0.06 0.0181708
-0.005 -0.06 0.0190607 0.005 -0.06 0.0190607 -0.005 -0.06 0.0199673 0.005
-0.06 0.0199673 -0.005 -0.06 0.020891 0.005 -0.06 0.020891 -0.005 -0.06
0.0218321 0.005 -0.06 0.0218321 -0.005 -0.06 0.0227908 0.005 -0.06 0.0227908
-0.005 -0.06 0.0237675 0.005 -0.06 0.0237675 -0.005 -0.06 0.0247626 0.005
-0.06 0.0247626 -0.005 -0.06 0.0257764 0.005 -0.06 0.0257764 -0.005 -0.06
0.0268093 0.005 -0.06 0.0268093 -0.005 -0.06 0.0278616 0.005 -0.06 0.0278616
-0.005 -0.06 0.0289336 0.005 -0.06 0.0289336 -0.005 -0.06 0.0300258 0.005
-0.06 0.0300258 -0.005 -0.06 0.0311385 0.005 -0.06 0.0311385 -0.005 -0.06
0.0322722 0.005 -0.06 0.0322722 -0.005 -0.06 0.0334271 0.005 -0.06 0.0334271
-0.005 -0.06 0.0346038 0.005 -0.06 0.0346038 -0.005 -0.06 0.0358025 0.005
-0.06 0.0358025 -0.005 -0.06 0.0370238 0.005 -0.06 0.0370238 -0.005 -0.06
0.0382681 0.005 -0.06 0.0382681 -0.005 -0.06 0.0395357 0.005 -0.06 0.0395357
-0.005 -0.06 0.0408272 0.005 -0.06 0.0408272 -0.005 -0.06 0.0421429 0.005
-0.06 0.0421429 -0.005 -0.06 0.0434834 0.005 -0.06 0.0434834 -0.005 -0.06
0.044849 0.005 -0.06 0.044849 -0.005 -0.06 0.0462404 0.005 -0.06 0.0462404
-0.005 -0.06 0.0476578 0.005 -0.06 0.0476578 -0.005 -0.06 0.0491019 0.005
-0.06 0.0491019 -0.005 -0.06 0.0505732 0.005 -0.06 0.0505732 -0.005 -0.06
0.0520721 0.005 -0.06 0.0520721 -0.005 -0.06 0.0535992 0.005 -0.06 0.0535992
-0.005 -0.06 0.055155 0.005 -0.06 0.055155 -0.005 -0.06 0.05674 0.005
-0.06 0.05674 -0.005 -0.06 0.0583548 0.005 -0.06 0.0583548 -0.005 -0.06
0.06 0.005 -0.06 0.06 -0.005 
POLYGONS 60 300
4 0 1 2 3 4 3 2 4 5 4
5 4 6 7 4 7 6 8 9 4
9 8 10 11 4 11 10 12 13 4
13 12 14 15 4 15 14 16 17 4
17 16 18 19 4 19 18 20 21 4
21 20 22 23 4 23 22 24 25 4
25 24 26 27 4 27 26 28 29 4
29 28 30 31 4 31 30 32 33 4
33 32 34 35 4 35 34 36 37 4
37 36 38 39 4 39 38 40 41 4
41 40 42 43 4 43 42 44 45 4
45 44 46 47 4 47 46 48 49 4
49 48 50 51 4 51 50 52 53 4
53 52 54 55 4 55 54 56 57 4
57 56 58 59 4 59 58 60 61 4
61 60 62 63 4 63 62 64 65 4
65 64 66 67 4 67 66 68 69 4
69 68 70 71 4 71 70 72 73 4
73 72 74 75 4 75 74 76 77 4
77 76 78 79 4 79 78 80 81 4
81 80 82 83 4 83 82 84 85 4
85 84 86 87 4 87 86 88 89 4
89 88 90 91 4 91 90 92 93 4
93 92 94 95 4 95 94 96 97 4
97 96 98 99 4 99 98 100 101 4
101 100 102 103 4 103 102 104 105 4
105 104 106 107 4 107 106 108 109 4
109 108 110 111 4 111 110 112 113 4
113 112 114 115 4 115 114 116 117 4
117 116 118 119 4 119 118 120 121 
CELL_DATA 60
FIELD attributes 9
patchID 1 60 float
1 1 1 1 1 1 1 1 1 1 1
1 1 1 1 1 1 1 1 1 1
1 1 1 1 1 1 1 1 1 1
1 1 1 1 1 1 1 1 1 1
1 1 1 1 1 1 1 1 1 1
1 1 1 1 1 1 1 1 1 
v2 1 60 float
0.25 0.25 0.25 0.25 0.25 0.25 0.25 0.25 0.25 0.25 0.25
0.25 0.25 0.25 0.25 0.25 0.25 0.25 0.25 0.25 0.25
0.25 0.25 0.25 0.25 0.25 0.25 0.25 0.25 0.25 0.25
0.25 0.25 0.25 0.25 0.25 0.25 0.25 0.25 0.25 0.25
0.25 0.25 0.25 0.25 0.25 0.25 0.25 0.25 0.25 0.25
0.25 0.25 0.25 0.25 0.25 0.25 0.25 0.25 0.25 
nut 1 60 float
0 0 0 0 0 0 0 0 0 0 0
0 0 0 0 0 0 0 0 0 0
0 0 0 0 0 0 0 0 0 0
0 0 0 0 0 0 0 0 0 0
0 0 0 0 0 0 0 0 0 0
0 0 0 0 0 0 0 0 0 
p 1 60 float
0 0 0 0 0 0 0 0 0 0 0
0 0 0 0 0 0 0 0 0 0
0 0 0 0 0 0 0 0 0 0
0 0 0 0 0 0 0 0 0 0
0 0 0 0 0 0 0 0 0 0
0 0 0 0 0 0 0 0 0 
k 1 60 float
0.2 0.2 0.2 0.2 0.2 0.2 0.2 0.2 0.2 0.2 0.2
0.2 0.2 0.2 0.2 0.2 0.2 0.2 0.2 0.2 0.2
0.2 0.2 0.2 0.2 0.2 0.2 0.2 0.2 0.2 0.2
0.2 0.2 0.2 0.2 0.2 0.2 0.2 0.2 0.2 0.2
0.2 0.2 0.2 0.2 0.2 0.2 0.2 0.2 0.2 0.2
0.2 0.2 0.2 0.2 0.2 0.2 0.2 0.2 0.2 
epsilon 1 60 float
3.54 3.54 3.54 3.54 3.54 3.54 3.54 3.54 3.54 3.54 3.54
3.54 3.54 3.54 3.54 3.54 3.54 3.54 3.54 3.54 3.54
3.54 3.54 3.54 3.54 3.54 3.54 3.54 3.54 3.54 3.54
3.54 3.54 3.54 3.54 3.54 3.54 3.54 3.54 3.54 3.54
3.54 3.54 3.54 3.54 3.54 3.54 3.54 3.54 3.54 3.54
3.54 3.54 3.54 3.54 3.54 3.54 3.54 3.54 3.54 
omega 1 60 float
440.15 440.15 440.15 440.15 440.15 440.15 440.15 440.15 440.15 440.15 440.15
440.15 440.15 440.15 440.15 440.15 440.15 440.15 440.15 440.15 440.15
440.15 440.15 440.15 440.15 440.15 440.15 440.15 440.15 440.15 440.15
440.15 440.15 440.15 440.15 440.15 440.15 440.15 440.15 440.15 440.15
440.15 440.15 440.15 440.15 440.15 440.15 440.15 440.15 440.15 440.15
440.15 440.15 440.15 440.15 440.15 440.15 440.15 440.15 440.15 
f 1 60 float
0 0 0 0 0 0 0 0 0 0 0
0 0 0 0 0 0 0 0 0 0
0 0 0 0 0 0 0 0 0 0
0 0 0 0 0 0 0 0 0 0
0 0 0 0 0 0 0 0 0 0
0 0 0 0 0 0 0 0 0 
U 3 60 float
7.333 0 0 7.333 0 0 7.333 0 0 7.333 0
0 7.333 0 0 7.333 0 0 7.333 0 0
7.333 0 0 7.333 0 0 7.333 0 0 7.333
0 0 7.333 0 0 7.333 0 0 7.333 0
0 7.333 0 0 7.333 0 0 7.333 0 0
7.333 0 0 7.333 0 0 7.333 0 0 7.333
0 0 7.333 0 0 7.333 0 0 7.333 0
0 7.333 0 0 7.333 0 0 7.333 0 0
7.333 0 0 7.333 0 0 7.333 0 0 7.333
0 0 7.333 0 0 7.333 0 0 7.333 0
0 7.333 0 0 7.333 0 0 7.333 0 0
7.333 0 0 7.333 0 0 7.333 0 0 7.333
0 0 7.333 0 0 7.333 0 0 7.333 0
0 7.333 0 0 7.333 0 0 7.333 0 0
7.333 0 0 7.333 0 0 7.333 0 0 7.333
0 0 7.333 0 0 7.333 0 0 7.333 0
0 7.333 0 0 7.333 0 0 7.333 0 0
7.333 0 0 7.333 0 0 7.333 0 0 
POINT_DATA  122
FIELD attributes 8
v2 1 122 float
0.25 0.25 0.25 0.25 0.25 0.25 0.25 0.25 0.25 0.25 0.25
0.25 0.25 0.25 0.25 0.25 0.25 0.25 0.25 0.25 0.25
0.25 0.25 0.25 0.25 0.25 0.25 0.25 0.25 0.25 0.25
0.25 0.25 0.25 0.25 0.25 0.25 0.25 0.25 0.25 0.25
0.25 0.25 0.25 0.25 0.25 0.25 0.25 0.25 0.25 0.25
0.25 0.25 0.25 0.25 0.25 0.25 0.25 0.25 0.25 0.25
0.25 0.25 0.25 0.25 0.25 0.25 0.25 0.25 0.25 0.25
0.25 0.25 0.25 0.25 0.25 0.25 0.25 0.25 0.25 0.25
0.25 0.25 0.25 0.25 0.25 0.25 0.25 0.25 0.25 0.25
0.25 0.25 0.25 0.25 0.25 0.25 0.25 0.25 0.25 0.25
0.25 0.25 0.25 0.25 0.25 0.25 0.25 0.25 0.25 0.25
0.25 0.25 0.25 0.25 0.25 0.25 0.25 0.25 0.25 0.25
0.25 
nut 1 122 float
0 0 0 0 0 0 0 0 0 0 0
0 0 0 0 0 0 0 0 0 0
0 0 0 0 0 0 0 0 0 0
0 0 0 0 0 0 0 0 0 0
0 0 0 0 0 0 0 0 0 0
0 0 0 0 0 0 0 0 0 0
0 0 0 0 0 0 0 0 0 0
0 0 0 0 0 0 0 0 0 0
0 0 0 0 0 0 0 0 0 0
0 0 0 0 0 0 0 0 0 0
0 0 0 0 0 0 0 0 0 0
0 0 0 0 0 0 0 0 0 0
0 
p 1 122 float
0 0 0 0 0 0 0 0 0 0 0
0 0 0 0 0 0 0 0 0 0
0 0 0 0 0 0 0 0 0 0
0 0 0 0 0 0 0 0 0 0
0 0 0 0 0 0 0 0 0 0
0 0 0 0 0 0 0 0 0 0
0 0 0 0 0 0 0 0 0 0
0 0 0 0 0 0 0 0 0 0
0 0 0 0 0 0 0 0 0 0
0 0 0 0 0 0 0 0 0 0
0 0 0 0 0 0 0 0 0 0
0 0 0 0 0 0 0 0 0 0
0 
k 1 122 float
0.2 0.2 0.2 0.2 0.2 0.2 0.2 0.2 0.2 0.2 0.2
0.2 0.2 0.2 0.2 0.2 0.2 0.2 0.2 0.2 0.2
0.2 0.2 0.2 0.2 0.2 0.2 0.2 0.2 0.2 0.2
0.2 0.2 0.2 0.2 0.2 0.2 0.2 0.2 0.2 0.2
0.2 0.2 0.2 0.2 0.2 0.2 0.2 0.2 0.2 0.2
0.2 0.2 0.2 0.2 0.2 0.2 0.2 0.2 0.2 0.2
0.2 0.2 0.2 0.2 0.2 0.2 0.2 0.2 0.2 0.2
0.2 0.2 0.2 0.2 0.2 0.2 0.2 0.2 0.2 0.2
0.2 0.2 0.2 0.2 0.2 0.2 0.2 0.2 0.2 0.2
0.2 0.2 0.2 0.2 0.2 0.2 0.2 0.2 0.2 0.2
0.2 0.2 0.2 0.2 0.2 0.2 0.2 0.2 0.2 0.2
0.2 0.2 0.2 0.2 0.2 0.2 0.2 0.2 0.2 0.2
0.2 
epsilon 1 122 float
3.54 3.54 3.54 3.54 3.54 3.54 3.54 3.54 3.54 3.54 3.54
3.54 3.54 3.54 3.54 3.54 3.54 3.54 3.54 3.54 3.54
3.54 3.54 3.54 3.54 3.54 3.54 3.54 3.54 3.54 3.54
3.54 3.54 3.54 3.54 3.54 3.54 3.54 3.54 3.54 3.54
3.54 3.54 3.54 3.54 3.54 3.54 3.54 3.54 3.54 3.54
3.54 3.54 3.54 3.54 3.54 3.54 3.54 3.54 3.54 3.54
3.54 3.54 3.54 3.54 3.54 3.54 3.54 3.54 3.54 3.54
3.54 3.54 3.54 3.54 3.54 3.54 3.54 3.54 3.54 3.54
3.54 3.54 3.54 3.54 3.54 3.54 3.54 3.54 3.54 3.54
3.54 3.54 3.54 3.54 3.54 3.54 3.54 3.54 3.54 3.54
3.54 3.54 3.54 3.54 3.54 3.54 3.54 3.54 3.54 3.54
3.54 3.54 3.54 3.54 3.54 3.54 3.54 3.54 3.54 3.54
3.54 
omega 1 122 float
440.15 440.15 440.15 440.15 440.15 440.15 440.15 440.15 440.15 440.15 440.15
440.15 440.15 440.15 440.15 440.15 440.15 440.15 440.15 440.15 440.15
440.15 440.15 440.15 440.15 440.15 440.15 440.15 440.15 440.15 440.15
440.15 440.15 440.15 440.15 440.15 440.15 440.15 440.15 440.15 440.15
440.15 440.15 440.15 440.15 440.15 440.15 440.15 440.15 440.15 440.15
440.15 440.15 440.15 440.15 440.15 440.15 440.15 440.15 440.15 440.15
440.15 440.15 440.15 440.15 440.15 440.15 440.15 440.15 440.15 440.15
440.15 440.15 440.15 440.15 440.15 440.15 440.15 440.15 440.15 440.15
440.15 440.15 440.15 440.15 440.15 440.15 440.15 440.15 440.15 440.15
440.15 440.15 440.15 440.15 440.15 440.15 440.15 440.15 440.15 440.15
440.15 440.15 440.15 440.15 440.15 440.15 440.15 440.15 440.15 440.15
440.15 440.15 440.15 440.15 440.15 440.15 440.15 440.15 440.15 440.15
440.15 
f 1 122 float
0 0 0 0 0 0 0 0 0 0 0
0 0 0 0 0 0 0 0 0 0
0 0 0 0 0 0 0 0 0 0
0 0 0 0 0 0 0 0 0 0
0 0 0 0 0 0 0 0 0 0
0 0 0 0 0 0 0 0 0 0
0 0 0 0 0 0 0 0 0 0
0 0 0 0 0 0 0 0 0 0
0 0 0 0 0 0 0 0 0 0
0 0 0 0 0 0 0 0 0 0
0 0 0 0 0 0 0 0 0 0
0 0 0 0 0 0 0 0 0 0
0 
U 3 122 float
7.333 0 0 7.333 0 0 7.333 0 0 7.333 0
0 7.333 0 0 7.333 0 0 7.333 0 0
7.333 0 0 7.333 0 0 7.333 0 0 7.333
0 0 7.333 0 0 7.333 0 0 7.333 0
0 7.333 0 0 7.333 0 0 7.333 0 0
7.333 0 0 7.333 0 0 7.333 0 0 7.333
0 0 7.333 0 0 7.333 0 0 7.333 0
0 7.333 0 0 7.333 0 0 7.333 0 0
7.333 0 0 7.333 0 0 7.333 0 0 7.333
0 0 7.333 0 0 7.333 0 0 7.333 0
0 7.333 0 0 7.333 0 0 7.333 0 0
7.333 0 0 7.333 0 0 7.333 0 0 7.333
0 0 7.333 0 0 7.333 0 0 7.333 0
0 7.333 0 0 7.333 0 0 7.333 0 0
7.333 0 0 7.333 0 0 7.333 0 0 7.333
0 0 7.333 0 0 7.333 0 0 7.333 0
0 7.333 0 0 7.333 0 0 7.333 0 0
7.333 0 0 7.333 0 0 7.333 0 0 7.333
0 0 7.333 0 0 7.333 0 0 7.333 0
0 7.333 0 0 7.333 0 0 7.333 0 0
7.333 0 0 7.333 0 0 7.333 0 0 7.333
0 0 7.333 0 0 7.333 0 0 7.333 0
0 7.333 0 0 7.333 0 0 7.333 0 0
7.333 0 0 7.333 0 0 7.333 0 0 7.333
0 0 7.333 0 0 7.333 0 0 7.333 0
0 7.333 0 0 7.333 0 0 7.333 0 0
7.333 0 0 7.333 0 0 7.333 0 0 7.333
0 0 7.333 0 0 7.333 0 0 7.333 0
0 7.333 0 0 7.333 0 0 7.333 0 0
7.333 0 0 7.333 0 0 7.333 0 0 7.333
0 0 7.333 0 0 7.333 0 0 7.333 0
0 7.333 0 0 7.333 0 0 7.333 0 0
7.333 0 0 7.333 0 0 7.333 0 0 7.333
0 0 7.333 0 0 7.333 0 0 7.333 0
0 7.333 0 0 7.333 0 0 7.333 0 0
7.333 0 0 7.333 0 0 7.333 0 0 7.333
0 0 7.333 0 0 
