# vtk DataFile Version 2.0
outlet
ASCII
DATASET POLYDATA
POINTS 162 float
0.3 0 -0.005 0.3 0.000548389 -0.005 0.3 0.000548389 0.005 0.3 0
0.005 0.3 0.00110709 -0.005 0.3 0.00110709 0.005 0.3 0.00167628 -0.005
0.3 0.00167628 0.005 0.3 0.00225618 -0.005 0.3 0.00225618 0.005 0.3
0.00284697 -0.005 0.3 0.00284697 0.005 0.3 0.00344887 -0.005 0.3 0.00344887
0.005 0.3 0.00406208 -0.005 0.3 0.00406208 0.005 0.3 0.00468682 -0.005
0.3 0.00468682 0.005 0.3 0.00532329 -0.005 0.3 0.00532329 0.005 0.3
0.00597173 -0.005 0.3 0.00597173 0.005 0.3 0.00663236 -0.005 0.3 0.00663236
0.005 0.3 0.00730541 -0.005 0.3 0.00730541 0.005 0.3 0.0079911 -0.005
0.3 0.0079911 0.005 0.3 0.00868968 -0.005 0.3 0.00868968 0.005 0.3
0.00940139 -0.005 0.3 0.00940139 0.005 0.3 0.0101265 -0.005 0.3 0.0101265
0.005 0.3 0.0108652 -0.005 0.3 0.0108652 0.005 0.3 0.0116178 -0.005
0.3 0.0116178 0.005 0.3 0.0123845 -0.005 0.3 0.0123845 0.005 0.3
0.0131657 -0.005 0.3 0.0131657 0.005 0.3 0.0139615 -0.005 0.3 0.0139615
0.005 0.3 0.0147723 -0.005 0.3 0.0147723 0.005 0.3 0.0155984 -0.005
0.3 0.0155984 0.005 0.3 0.0164399 -0.005 0.3 0.0164399 0.005 0.3
0.0172973 -0.005 0.3 0.0172973 0.005 0.3 0.0181708 -0.005 0.3 0.0181708
0.005 0.3 0.0190607 -0.005 0.3 0.0190607 0.005 0.3 0.0199673 -0.005
0.3 0.0199673 0.005 0.3 0.020891 -0.005 0.3 0.020891 0.005 0.3
0.0218321 -0.005 0.3 0.0218321 0.005 0.3 0.0227908 -0.005 0.3 0.0227908
0.005 0.3 0.0237675 -0.005 0.3 0.0237675 0.005 0.3 0.0247626 -0.005
0.3 0.0247626 0.005 0.3 0.0257764 -0.005 0.3 0.0257764 0.005 0.3
0.0268093 -0.005 0.3 0.0268093 0.005 0.3 0.0278616 -0.005 0.3 0.0278616
0.005 0.3 0.0289336 -0.005 0.3 0.0289336 0.005 0.3 0.0300258 -0.005
0.3 0.0300258 0.005 0.3 0.0311385 -0.005 0.3 0.0311385 0.005 0.3
0.0322722 -0.005 0.3 0.0322722 0.005 0.3 0.0334271 -0.005 0.3 0.0334271
0.005 0.3 0.0346038 -0.005 0.3 0.0346038 0.005 0.3 0.0358025 -0.005
0.3 0.0358025 0.005 0.3 0.0370238 -0.005 0.3 0.0370238 0.005 0.3
0.0382681 -0.005 0.3 0.0382681 0.005 0.3 0.0395357 -0.005 0.3 0.0395357
0.005 0.3 0.0408272 -0.005 0.3 0.0408272 0.005 0.3 0.0421429 -0.005
0.3 0.0421429 0.005 0.3 0.0434834 -0.005 0.3 0.0434834 0.005 0.3
0.044849 -0.005 0.3 0.044849 0.005 0.3 0.0462404 -0.005 0.3 0.0462404
0.005 0.3 0.0476578 -0.005 0.3 0.0476578 0.005 0.3 0.0491019 -0.005
0.3 0.0491019 0.005 0.3 0.0505732 -0.005 0.3 0.0505732 0.005 0.3
0.0520721 -0.005 0.3 0.0520721 0.005 0.3 0.0535992 -0.005 0.3 0.0535992
0.005 0.3 0.055155 -0.005 0.3 0.055155 0.005 0.3 0.05674 -0.005
0.3 0.05674 0.005 0.3 0.0583548 -0.005 0.3 0.0583548 0.005 0.3
0.06 -0.005 0.3 0.06 0.005 0.3 -0.03 -0.005 0.3 -0.027436
-0.005 0.3 -0.027436 0.005 0.3 -0.03 0.005 0.3 -0.0250294 -0.005
0.3 -0.0250294 0.005 0.3 -0.0227706 -0.005 0.3 -0.0227706 0.005 0.3
-0.0206505 -0.005 0.3 -0.0206505 0.005 0.3 -0.0186606 -0.005 0.3 -0.0186606
0.005 0.3 -0.0167928 -0.005 0.3 -0.0167928 0.005 0.3 -0.0150398 -0.005
0.3 -0.0150398 0.005 0.3 -0.0133943 -0.005 0.3 -0.0133943 0.005 0.3
-0.0118499 -0.005 0.3 -0.0118499 0.005 0.3 -0.0104004 -0.005 0.3 -0.0104004
0.005 0.3 -0.0090398 -0.005 0.3 -0.0090398 0.005 0.3 -0.00776278 -0.005
0.3 -0.00776278 0.005 0.3 -0.00656416 -0.005 0.3 -0.00656416 0.005 0.3
-0.00543915 -0.005 0.3 -0.00543915 0.005 0.3 -0.00438321 -0.005 0.3 -0.00438321
0.005 0.3 -0.0033921 -0.005 0.3 -0.0033921 0.005 0.3 -0.00246185 -0.005
0.3 -0.00246185 0.005 0.3 -0.00158872 -0.005 0.3 -0.00158872 0.005 0.3
-0.000769201 -0.005 0.3 -0.000769201 0.005 
POLYGONS 80 400
4 0 1 2 3 4 1 4 5 2 4
4 6 7 5 4 6 8 9 7 4
8 10 11 9 4 10 12 13 11 4
12 14 15 13 4 14 16 17 15 4
16 18 19 17 4 18 20 21 19 4
20 22 23 21 4 22 24 25 23 4
24 26 27 25 4 26 28 29 27 4
28 30 31 29 4 30 32 33 31 4
32 34 35 33 4 34 36 37 35 4
36 38 39 37 4 38 40 41 39 4
40 42 43 41 4 42 44 45 43 4
44 46 47 45 4 46 48 49 47 4
48 50 51 49 4 50 52 53 51 4
52 54 55 53 4 54 56 57 55 4
56 58 59 57 4 58 60 61 59 4
60 62 63 61 4 62 64 65 63 4
64 66 67 65 4 66 68 69 67 4
68 70 71 69 4 70 72 73 71 4
72 74 75 73 4 74 76 77 75 4
76 78 79 77 4 78 80 81 79 4
80 82 83 81 4 82 84 85 83 4
84 86 87 85 4 86 88 89 87 4
88 90 91 89 4 90 92 93 91 4
92 94 95 93 4 94 96 97 95 4
96 98 99 97 4 98 100 101 99 4
100 102 103 101 4 102 104 105 103 4
104 106 107 105 4 106 108 109 107 4
108 110 111 109 4 110 112 113 111 4
112 114 115 113 4 114 116 117 115 4
116 118 119 117 4 118 120 121 119 4
122 123 124 125 4 123 126 127 124 4
126 128 129 127 4 128 130 131 129 4
130 132 133 131 4 132 134 135 133 4
134 136 137 135 4 136 138 139 137 4
138 140 141 139 4 140 142 143 141 4
142 144 145 143 4 144 146 147 145 4
146 148 149 147 4 148 150 151 149 4
150 152 153 151 4 152 154 155 153 4
154 156 157 155 4 156 158 159 157 4
158 160 161 159 4 160 0 3 161 
CELL_DATA 80
FIELD attributes 6
patchID 1 80 float
0 0 0 0 0 0 0 0 0 0 0
0 0 0 0 0 0 0 0 0 0
0 0 0 0 0 0 0 0 0 0
0 0 0 0 0 0 0 0 0 0
0 0 0 0 0 0 0 0 0 0
0 0 0 0 0 0 0 0 0 0
0 0 0 0 0 0 0 0 0 0
0 0 0 0 0 0 0 0 0 
p 1 80 float
0 0 0 0 0 0 0 0 0 0 0
0 0 0 0 0 0 0 0 0 0
0 0 0 0 0 0 0 0 0 0
0 0 0 0 0 0 0 0 0 0
0 0 0 0 0 0 0 0 0 0
0 0 0 0 0 0 0 0 0 0
0 0 0 0 0 0 0 0 0 0
0 0 0 0 0 0 0 0 0 
nut 1 80 float
0.00277896 0.00285035 0.0029133 0.00296761 0.00301311 0.00304966 0.00307712 0.0030953 0.00310397 0.00310283 0.00309153
0.00306962 0.00303659 0.00299186 0.00293483 0.00286486 0.00278139 0.00268396 0.00257237 0.00244682 0.00230814
0.00215805 0.00199943 0.00183659 0.00167527 0.0015224 0.0013852 0.00126982 0.00117967 0.00111443 0.0010704
0.00104214 0.00102429 0.00101261 0.0010042 0.000997255 0.000990697 0.000983853 0.000976252 0.000967502 0.000957221
0.000944991 0.000930331 0.000912663 0.000891273 0.000865248 0.000833397 0.000794144 0.000745476 0.000685182 0.000612035
0.000529137 0.000449201 0.000393589 0.000374473 0.000379191 0.000380392 0.000350482 0.000263578 9.16283e-05 0.000192119
0.00104019 0.00170885 0.00211702 0.00234544 0.00245281 0.00247834 0.00244954 0.00238727 0.00230878 0.0022295
0.00216373 0.00212416 0.00212015 0.0021556 0.00222771 0.00232789 0.00244466 0.00256667 0.00268482 
k 1 80 float
0.47786 0.474972 0.47169 0.467907 0.463518 0.458425 0.452535 0.445762 0.438025 0.429256 0.419392
0.408387 0.396206 0.382831 0.368264 0.352528 0.33567 0.317767 0.298932 0.279319 0.259134
0.238645 0.218199 0.19823 0.179272 0.161936 0.146844 0.134493 0.125086 0.118442 0.114056
0.111291 0.109568 0.108453 0.107668 0.107049 0.106504 0.105978 0.105441 0.104869 0.104242
0.103543 0.102758 0.101872 0.100881 0.0997878 0.0986228 0.0974601 0.0964627 0.0959707 0.0966961
0.100144 0.109378 0.129448 0.164576 0.211234 0.257206 0.290229 0.302478 0.246339 0.439662
0.723769 0.849283 0.911808 0.935954 0.932717 0.909322 0.871472 0.824037 0.771327 0.717218
0.665177 0.618144 0.578244 0.546489 0.522692 0.505757 0.494164 0.486398 0.481179 
epsilon 1 80 float
7.3954 7.12329 6.87339 6.6398 6.41743 6.20194 5.98968 5.77758 5.56319 5.34461 5.12046
4.88991 4.65262 4.40875 4.1589 3.90414 3.6459 3.38597 3.12647 2.86974 2.61836
2.37513 2.14309 1.92561 1.72656 1.55025 1.40102 1.28203 1.19371 1.13293 1.09379
1.06964 1.05483 1.0454 1.03895 1.03419 1.03046 1.02742 1.02495 1.02302 1.02168
1.02108 1.02149 1.0234 1.02766 1.03575 1.05038 1.07646 1.12338 1.2098 1.37494
1.7058 2.39697 3.83166 6.5096 10.5903 15.6522 21.6301 31.2407 59.6046 90.5548
45.3239 37.9877 35.3447 33.6146 31.9211 30.0273 27.9039 25.5997 23.192 20.7652
18.4041 16.1896 14.1938 12.4691 11.0376 9.88926 8.99013 8.29575 7.7614 
U 3 80 float
4.70857 -0.0977579 0 4.71787 -0.096688 0 4.72916 -0.0956126 0 4.74238 -0.0945255
0 4.75748 -0.0934473 0 4.77441 -0.0923806 0 4.79309 -0.0913249 0
4.81347 -0.0902799 0 4.83546 -0.0892445 0 4.85899 -0.0882162 0 4.88398
-0.0871913 0 4.91036 -0.0861641 0 4.93808 -0.0851261 0 4.96706 -0.0840657
0 4.9973 -0.0829667 0 5.02878 -0.081807 0 5.06153 -0.0805569 0
5.09563 -0.0791774 0 5.13117 -0.0776175 0 5.1683 -0.0758131 0 5.20719
-0.0736864 0 5.24798 -0.0711495 0 5.29074 -0.0681152 0 5.33535 -0.0645194
0 5.38133 -0.0603572 0 5.42768 -0.0557269 0 5.47281 -0.0508595 0
5.51473 -0.0460992 0 5.55151 -0.0418167 0 5.58188 -0.0382909 0 5.60559
-0.0356318 0 5.62335 -0.0337906 0 5.63636 -0.0326252 0 5.64592 -0.0319673
0 5.65312 -0.0316626 0 5.6588 -0.0315864 0 5.66354 -0.0316443 0
5.6677 -0.0317678 0 5.6715 -0.0319075 0 5.67508 -0.032028 0 5.67851
-0.0321031 0 5.68179 -0.0321125 0 5.68491 -0.0320391 0 5.68781 -0.0318678
0 5.69035 -0.031583 0 5.69232 -0.0311677 0 5.69339 -0.0306009 0
5.69298 -0.0298557 0 5.69016 -0.0288948 0 5.68331 -0.0276643 0 5.66945
-0.0260826 0 5.64283 -0.0240208 0 5.59225 -0.0212744 0 5.4985 -0.0175689
0 5.33941 -0.0128174 0 5.10589 -0.00758868 0 4.80585 -0.00293798 0
4.44519 0.000342455 0 3.99975 0.00173024 0 3.28882 0.00162134 0 3.06944
-0.0240272 0 3.45432 -0.0504742 0 3.6609 -0.0717442 0 3.82209 -0.0871657
0 3.96136 -0.0985412 0 4.08461 -0.106588 0 4.19365 -0.111973 0
4.28917 -0.115229 0 4.37163 -0.116819 0 4.44155 -0.117139 0 4.49965
-0.11652 0 4.54687 -0.115231 0 4.58438 -0.113489 0 4.61358 -0.111468
0 4.63607 -0.109308 0 4.65349 -0.107117 0 4.66736 -0.104971 0
4.679 -0.102915 0 4.68943 -0.100991 0 4.69943 -0.0992421 0 
POINT_DATA  162
FIELD attributes 5
p 1 162 float
0 0 0 0 0 0 0 0 0 0 0
0 0 0 0 0 0 0 0 0 0
0 0 0 0 0 0 0 0 0 0
0 0 0 0 0 0 0 0 0 0
0 0 0 0 0 0 0 0 0 0
0 0 0 0 0 0 0 0 0 0
0 0 0 0 0 0 0 0 0 0
0 0 0 0 0 0 0 0 0 0
0 0 0 0 0 0 0 0 0 0
0 0 0 0 0 0 0 0 0 0
0 0 0 0 0 0 0 0 0 0
0 0 0 0 0 0 0 0 0 0
0 0 0 0 0 0 0 0 0 0
0 0 0 0 0 0 0 0 0 0
0 0 0 0 0 0 0 0 0 0
0 0 0 0 0 0 0 0 0 0
0 
nut 1 162 float
0.00273192 0.00281465 0.00281465 0.00273192 0.00288182 0.00288182 0.00294045 0.00294045 0.00299036 0.00299036 0.00303138
0.00303138 0.00306339 0.00306339 0.00308621 0.00308621 0.00309963 0.00309963 0.0031034 0.0031034 0.00309718
0.00309718 0.00308058 0.00308058 0.00305311 0.00305311 0.00301423 0.00301423 0.00296335 0.00296335 0.00289985
0.00289985 0.00282313 0.00282313 0.00273268 0.00273268 0.00262817 0.00262817 0.0025096 0.0025096 0.00237748
0.00237748 0.0022331 0.0022331 0.00207874 0.00207874 0.00191802 0.00191802 0.00175594 0.00175594 0.00159884
0.00159884 0.0014538 0.0014538 0.00132751 0.00132751 0.00122475 0.00122475 0.00114705 0.00114705 0.00109242
0.00109242 0.00105627 0.00105627 0.00103322 0.00103322 0.00101845 0.00101845 0.00100841 0.00100841 0.00100073
0.00100073 0.000993976 0.000993976 0.000987275 0.000987275 0.000980053 0.000980053 0.000971877 0.000971877 0.000962362
0.000962362 0.000951107 0.000951107 0.000937662 0.000937662 0.000921498 0.000921498 0.000901969 0.000901969 0.000878262
0.000878262 0.000849325 0.000849325 0.000813774 0.000813774 0.000769814 0.000769814 0.000715334 0.000715334 0.000648615
0.000648615 0.000570593 0.000570593 0.000489176 0.000489176 0.0004214 0.0004214 0.000384033 0.000384033 0.000376832
0.000376832 0.000379791 0.000379791 0.00036544 0.00036544 0.00030704 0.00030704 0.000177624 0.000177624 9.16283e-05
9.16283e-05 0.000192119 0.000616936 0.000616936 0.000192119 0.00137507 0.00137507 0.00191323 0.00191323 0.00223138
0.00223138 0.00239919 0.00239919 0.00246559 0.00246559 0.00246393 0.00246393 0.00241838 0.00241838 0.002348
0.002348 0.00226912 0.00226912 0.0021966 0.0021966 0.00214394 0.00214394 0.00212215 0.00212215 0.00213788
0.00213788 0.00219167 0.00219167 0.00227781 0.00227781 0.00238629 0.00238629 0.00250568 0.00250568 0.00262576
0.00262576 
k 1 162 float
0.479518 0.476416 0.476416 0.479518 0.473331 0.473331 0.469799 0.469799 0.465713 0.465713 0.460972
0.460972 0.45548 0.45548 0.449149 0.449149 0.441894 0.441894 0.433641 0.433641 0.424324
0.424324 0.41389 0.41389 0.402297 0.402297 0.389519 0.389519 0.375548 0.375548 0.360396
0.360396 0.344099 0.344099 0.326719 0.326719 0.30835 0.30835 0.289126 0.289126 0.269227
0.269227 0.24889 0.24889 0.228423 0.228423 0.208215 0.208215 0.188752 0.188752 0.170605
0.170605 0.154391 0.154391 0.140669 0.140669 0.12979 0.12979 0.121764 0.121764 0.116249
0.116249 0.112674 0.112674 0.11043 0.11043 0.109011 0.109011 0.108061 0.108061 0.107359
0.107359 0.106777 0.106777 0.106241 0.106241 0.10571 0.10571 0.105155 0.105155 0.104556
0.104556 0.103893 0.103893 0.103151 0.103151 0.102315 0.102315 0.101377 0.101377 0.100334
0.100334 0.0992054 0.0992054 0.0980415 0.0980415 0.0969615 0.0969615 0.0962167 0.0962167 0.0963333
0.0963333 0.0984197 0.0984197 0.10476 0.10476 0.119411 0.119411 0.147008 0.147008 0.1879
0.1879 0.234215 0.234215 0.273714 0.273714 0.296352 0.296352 0.274415 0.274415 0.246339
0.246339 0.439662 0.581977 0.581977 0.439662 0.786629 0.786629 0.880591 0.880591 0.923896
0.923896 0.934334 0.934334 0.921008 0.921008 0.89038 0.89038 0.847736 0.847736 0.797664
0.797664 0.744256 0.744256 0.691183 0.691183 0.641649 0.641649 0.598186 0.598186 0.562361
0.562361 0.534587 0.534587 0.514222 0.514222 0.499959 0.499959 0.49028 0.49028 0.483788
0.483788 
epsilon 1 162 float
7.57827 7.25935 7.25935 7.57827 6.99834 6.99834 6.7566 6.7566 6.52862 6.52862 6.30969
6.30969 6.09581 6.09581 5.88363 5.88363 5.67039 5.67039 5.4539 5.4539 5.23254
5.23254 5.00519 5.00519 4.77127 4.77127 4.53069 4.53069 4.28383 4.28383 4.03153
4.03153 3.77503 3.77503 3.51594 3.51594 3.25623 3.25623 2.99811 2.99811 2.74406
2.74406 2.49675 2.49675 2.25912 2.25912 2.03436 2.03436 1.82609 1.82609 1.63841
1.63841 1.47564 1.47564 1.34153 1.34153 1.23787 1.23787 1.16332 1.16332 1.11336
1.11336 1.08172 1.08172 1.06224 1.06224 1.05012 1.05012 1.04218 1.04218 1.03657
1.03657 1.03233 1.03233 1.02894 1.02894 1.02619 1.02619 1.02399 1.02399 1.02235
1.02235 1.02138 1.02138 1.02128 1.02128 1.02244 1.02244 1.02553 1.02553 1.0317
1.0317 1.04306 1.04306 1.06342 1.06342 1.09992 1.09992 1.16658 1.16658 1.29236
1.29236 1.54034 1.54034 2.05132 2.05132 3.11418 3.11418 5.17036 5.17036 8.54953
8.54953 13.1207 13.1207 18.6405 18.6405 26.4343 26.4343 45.4192 45.4192 59.6046
59.6046 90.5548 67.8977 67.8977 90.5548 41.6498 41.6498 36.6643 36.6643 34.4785
34.4785 32.7669 32.7669 30.9732 30.9732 28.9647 28.9647 26.7509 26.7509 24.395
24.395 21.9779 21.9779 19.584 19.584 17.2963 17.2963 15.1913 15.1913 13.3311
13.3311 11.7531 11.7531 10.4633 10.4633 9.43958 9.43958 8.64286 8.64286 8.02852
8.02852 
U 3 162 float
4.704 -0.0984995 0 4.71322 -0.097223 0 4.71322 -0.097223 0 4.704 -0.0984995
0 4.72352 -0.0961503 0 4.72352 -0.0961503 0 4.73577 -0.0950691 0
4.73577 -0.0950691 0 4.74993 -0.0939864 0 4.74993 -0.0939864 0 4.76594
-0.092914 0 4.76594 -0.092914 0 4.78375 -0.0918528 0 4.78375 -0.0918528
0 4.80328 -0.0908024 0 4.80328 -0.0908024 0 4.82446 -0.0897622 0
4.82446 -0.0897622 0 4.84722 -0.0887304 0 4.84722 -0.0887304 0 4.87148
-0.0877038 0 4.87148 -0.0877038 0 4.89717 -0.0866777 0 4.89717 -0.0866777
0 4.92422 -0.0856451 0 4.92422 -0.0856451 0 4.95257 -0.0845959 0
4.95257 -0.0845959 0 4.98218 -0.0835162 0 4.98218 -0.0835162 0 5.01304
-0.0823869 0 5.01304 -0.0823869 0 5.04515 -0.081182 0 5.04515 -0.081182
0 5.07858 -0.0798672 0 5.07858 -0.0798672 0 5.1134 -0.0783975 0
5.1134 -0.0783975 0 5.14973 -0.0767154 0 5.14973 -0.0767154 0 5.18774
-0.0747498 0 5.18774 -0.0747498 0 5.22758 -0.072418 0 5.22758 -0.072418
0 5.26936 -0.0696324 0 5.26936 -0.0696324 0 5.31304 -0.0663174 0
5.31304 -0.0663174 0 5.35834 -0.0624384 0 5.35834 -0.0624384 0 5.4045
-0.0580422 0 5.4045 -0.0580422 0 5.45024 -0.0532934 0 5.45024 -0.0532934
0 5.49377 -0.0484795 0 5.49377 -0.0484795 0 5.53312 -0.0439581 0
5.53312 -0.0439581 0 5.56669 -0.0400539 0 5.56669 -0.0400539 0 5.59373
-0.0369615 0 5.59373 -0.0369615 0 5.61447 -0.0347113 0 5.61447 -0.0347113
0 5.62985 -0.033208 0 5.62985 -0.033208 0 5.64114 -0.0322963 0
5.64114 -0.0322963 0 5.64952 -0.031815 0 5.64952 -0.031815 0 5.65596
-0.0316245 0 5.65596 -0.0316245 0 5.66117 -0.0316153 0 5.66117 -0.0316153
0 5.66562 -0.031706 0 5.66562 -0.031706 0 5.6696 -0.0318376 0
5.6696 -0.0318376 0 5.67329 -0.0319677 0 5.67329 -0.0319677 0 5.6768
-0.0320655 0 5.6768 -0.0320655 0 5.68015 -0.0321078 0 5.68015 -0.0321078
0 5.68335 -0.0320758 0 5.68335 -0.0320758 0 5.68636 -0.0319535 0
5.68636 -0.0319535 0 5.68908 -0.0317254 0 5.68908 -0.0317254 0 5.69133
-0.0313754 0 5.69133 -0.0313754 0 5.69285 -0.0308843 0 5.69285 -0.0308843
0 5.69318 -0.0302284 0 5.69318 -0.0302284 0 5.69157 -0.0293753 0
5.69157 -0.0293753 0 5.68674 -0.0282797 0 5.68674 -0.0282797 0 5.67638
-0.0268736 0 5.67638 -0.0268736 0 5.65614 -0.0250519 0 5.65614 -0.0250519
0 5.61754 -0.0226479 0 5.61754 -0.0226479 0 5.54538 -0.019422 0
5.54538 -0.019422 0 5.41897 -0.0151936 0 5.41897 -0.0151936 0 5.22267
-0.0102036 0 5.22267 -0.0102036 0 4.9559 -0.00526383 0 4.9559 -0.00526383
0 4.62556 -0.00129813 0 4.62556 -0.00129813 0 4.22252 0.00103619 0
4.22252 0.00103619 0 3.64437 0.0016758 0 3.64437 0.0016758 0 3.28882
0.00162134 0 3.28882 0.00162134 0 3.06944 -0.0240272 0 3.26223 -0.0372751
0 3.26223 -0.0372751 0 3.06944 -0.0240272 0 3.55778 -0.0611266 0
3.55778 -0.0611266 0 3.74161 -0.0794661 0 3.74161 -0.0794661 0 3.89181
-0.0928608 0 3.89181 -0.0928608 0 4.02306 -0.102569 0 4.02306 -0.102569
0 4.13918 -0.109283 0 4.13918 -0.109283 0 4.24145 -0.113602 0
4.24145 -0.113602 0 4.33043 -0.116025 0 4.33043 -0.116025 0 4.40661
-0.116979 0 4.40661 -0.116979 0 4.47062 -0.116829 0 4.47062 -0.116829
0 4.52327 -0.115875 0 4.52327 -0.115875 0 4.56563 -0.11436 0
4.56563 -0.11436 0 4.59899 -0.112478 0 4.59899 -0.112478 0 4.62483
-0.110388 0 4.62483 -0.110388 0 4.64478 -0.108212 0 4.64478 -0.108212
0 4.66043 -0.106044 0 4.66043 -0.106044 0 4.67318 -0.103943 0
4.67318 -0.103943 0 4.68422 -0.101953 0 4.68422 -0.101953 0 4.69443
-0.100116 0 4.69443 -0.100116 0 
