/*--------------------------------*- C++ -*----------------------------------*\
| =========                 |                                                 |
| \\      /  F ield         | OpenFOAM: The Open Source CFD Toolbox           |
|  \\    /   O peration     | Version:  5.x                                   |
|   \\  /    A nd           | Web:      www.OpenFOAM.org                      |
|    \\/     M anipulation  |                                                 |
\*---------------------------------------------------------------------------*/
FoamFile
{
    version     2.0;
    format      ascii;
    class       volScalarField;
    location    "100";
    object      nut;
}
// * * * * * * * * * * * * * * * * * * * * * * * * * * * * * * * * * * * * * //

dimensions      [0 2 -1 0 0 0 0];

internalField   nonuniform List<scalar> 
11040
(
0.00495492
0.00507438
0.00457744
0.00412909
0.00388154
0.00374812
0.00362547
0.00345339
0.00329179
0.00315159
0.00302843
0.00291853
0.00281973
0.0027307
0.00265047
0.00257556
0.00249968
0.00242593
0.00235459
0.00228632
0.00222077
0.00216008
0.00210447
0.00205177
0.00200089
0.00195456
0.00191365
0.00187692
0.00184287
0.00181039
0.00177893
0.00174787
0.00171655
0.00168415
0.00164979
0.00161297
0.00157157
0.00152704
0.00146428
0.00142867
0.00114877
0.0133613
0.0115893
0.00976754
0.00892358
0.00855428
0.00816238
0.00765273
0.00708222
0.00659659
0.00619853
0.00584114
0.00551263
0.00521514
0.00494333
0.00469146
0.00446562
0.00428096
0.0041307
0.00399997
0.00387979
0.00376821
0.00366898
0.00358311
0.0035096
0.00344717
0.00338825
0.00332868
0.00327139
0.0032202
0.00317643
0.00313963
0.00310893
0.00308369
0.0030633
0.00304767
0.00303603
0.00303029
0.00302473
0.00303486
0.00302461
0.00295891
0.0254641
0.0229103
0.0194725
0.0161166
0.0136172
0.0119457
0.0108114
0.0099014
0.00938966
0.00901766
0.00865384
0.0083483
0.0081009
0.00787442
0.00765753
0.00744786
0.00723074
0.00702872
0.00685422
0.00670796
0.0065853
0.00648481
0.00639997
0.00632253
0.0062525
0.00620229
0.00616642
0.0061337
0.00610071
0.00606726
0.00603404
0.00600164
0.00597033
0.00593935
0.00590865
0.00587626
0.00584479
0.00579892
0.00577112
0.00569257
0.00528143
0.0379224
0.0350815
0.0303128
0.0256019
0.0217629
0.0188891
0.0167446
0.0149916
0.0135904
0.0125009
0.0116232
0.0112226
0.0109829
0.010726
0.0104894
0.0102992
0.0101082
0.00991867
0.00974596
0.00959636
0.00947066
0.00937126
0.00929283
0.00922539
0.00916532
0.00912434
0.00910132
0.00908729
0.00907717
0.00906821
0.00905906
0.00904901
0.00903759
0.00902348
0.00900609
0.00898261
0.00895438
0.00890563
0.00885156
0.00879736
0.00812035
0.0502293
0.0473067
0.0424066
0.0372479
0.0326387
0.028825
0.0257019
0.022989
0.0206741
0.0187483
0.0171487
0.0158604
0.0148469
0.014025
0.0135883
0.0133769
0.0131347
0.0129035
0.0127159
0.0125577
0.0124258
0.0123243
0.0122478
0.0121855
0.0121322
0.0120996
0.0120883
0.0120903
0.0121005
0.0121149
0.0121309
0.0121461
0.0121591
0.0121675
0.0121699
0.0121627
0.0121456
0.0121049
0.0120392
0.0120053
0.0112468
0.0620202
0.05942
0.054969
0.0499438
0.0450409
0.0406188
0.0367326
0.0332044
0.0300724
0.0273597
0.0250256
0.0230202
0.0213115
0.0198601
0.0186605
0.0176824
0.0168473
0.0163824
0.0161064
0.0158578
0.0156611
0.0155182
0.015412
0.0153263
0.0152553
0.0152111
0.015195
0.0151991
0.0152171
0.015244
0.0152755
0.0153084
0.01534
0.0153671
0.0153872
0.0153962
0.0153923
0.0153637
0.0152983
0.0152765
0.0145396
0.0730233
0.0709151
0.0671943
0.062629
0.0577366
0.0530296
0.0486988
0.0446588
0.0409664
0.0376739
0.0347398
0.0321173
0.0298006
0.0277647
0.025985
0.0244215
0.0230006
0.0217559
0.0206919
0.0199397
0.0195446
0.0192734
0.0190552
0.018878
0.0187367
0.0186404
0.0185874
0.0185675
0.0185702
0.0185879
0.0186147
0.0186464
0.0186795
0.01871
0.0187347
0.0187489
0.0187495
0.0187262
0.0186618
0.0186436
0.0179659
0.0830545
0.081451
0.0785222
0.0746489
0.0702936
0.0658308
0.0614513
0.0571505
0.0530498
0.0492413
0.0457669
0.0426352
0.0398571
0.0373358
0.0350614
0.0330045
0.0310958
0.029334
0.0277264
0.0262929
0.0250594
0.0241217
0.0235283
0.0231367
0.0228533
0.0226558
0.0225284
0.0224547
0.0224098
0.0223852
0.0223754
0.0223758
0.0223823
0.0223895
0.0223932
0.0223886
0.0223716
0.0223329
0.0222534
0.0222214
0.02159
0.0920093
0.0908471
0.0886395
0.0855622
0.081968
0.0780543
0.0740011
0.0698521
0.0657579
0.0617715
0.0579701
0.0544164
0.0511539
0.0481892
0.0455173
0.0430722
0.0407625
0.0385878
0.0365577
0.0346773
0.0329483
0.0314326
0.0301576
0.0291013
0.0283292
0.027818
0.0274783
0.0272449
0.0270805
0.0269621
0.0268747
0.0268077
0.026755
0.0267055
0.0266543
0.0265974
0.0265304
0.0264444
0.0263198
0.0262462
0.0256125
0.0998568
0.0990449
0.0974281
0.0950883
0.0922549
0.0890439
0.0855889
0.0819096
0.0781072
0.0742782
0.0705017
0.0668566
0.063393
0.0601316
0.0571036
0.0543009
0.0516686
0.0491842
0.0468255
0.0446002
0.042511
0.040631
0.0389857
0.0375215
0.0362238
0.0351135
0.0342367
0.0336071
0.0331594
0.0328261
0.0325659
0.0323546
0.0321765
0.0320178
0.0318686
0.0317249
0.0315753
0.031409
0.0312071
0.0310623
0.0303715
0.106625
0.106073
0.104905
0.103177
0.101021
0.0985297
0.09577
0.092721
0.0894878
0.0861092
0.0826453
0.079171
0.0757604
0.0724707
0.0693423
0.0663596
0.0634961
0.0607587
0.0581572
0.0556989
0.053355
0.0512139
0.0493141
0.0475994
0.04604
0.0446388
0.0433951
0.0422981
0.0413426
0.040549
0.0399272
0.039442
0.0390471
0.0387067
0.0384005
0.0381155
0.0378409
0.0375615
0.0372595
0.037024
0.0362454
0.112383
0.112016
0.111172
0.109926
0.108333
0.106463
0.104323
0.101925
0.0993115
0.0965212
0.0935866
0.0905549
0.0874946
0.0844364
0.0814312
0.0785064
0.0756528
0.0728608
0.07015
0.0675405
0.0650414
0.0627553
0.0607017
0.058826
0.057103
0.055535
0.0541168
0.0528284
0.0516504
0.0505693
0.0495775
0.0486703
0.0478547
0.0471482
0.0465534
0.0460451
0.045592
0.0451621
0.0447287
0.0443805
0.0435142
0.117232
0.116998
0.116411
0.115516
0.114349
0.112966
0.111358
0.109537
0.107524
0.105337
0.102991
0.100508
0.0979275
0.0952891
0.0926446
0.0899967
0.0873469
0.0847138
0.0821189
0.0795647
0.0770674
0.0747332
0.0726155
0.070669
0.0688718
0.0672234
0.0657281
0.064356
0.0630872
0.061906
0.0607994
0.0597563
0.0587677
0.0578241
0.0569232
0.0560659
0.055258
0.0545086
0.0538232
0.0532942
0.0523067
0.12129
0.121144
0.12075
0.120103
0.119248
0.118231
0.117038
0.115679
0.114152
0.11248
0.110672
0.108737
0.106693
0.104573
0.102389
0.10016
0.0978982
0.0956015
0.0932873
0.0909738
0.0886812
0.0864947
0.0844746
0.0825913
0.0808321
0.0792008
0.0776965
0.0763065
0.0750162
0.0738111
0.0726838
0.0716168
0.0706
0.0696204
0.0686716
0.0677505
0.0668547
0.0659708
0.065094
0.0643075
0.0630909
0.124668
0.124582
0.12431
0.123845
0.123221
0.122473
0.12159
0.120574
0.119438
0.118192
0.116837
0.115376
0.113817
0.112174
0.11046
0.108696
0.106871
0.104993
0.103082
0.101138
0.0991729
0.0972716
0.0954978
0.0938207
0.0922329
0.0907406
0.0893461
0.0880424
0.0868207
0.0856715
0.0845864
0.0835567
0.0825806
0.0816408
0.0807314
0.0798496
0.0789935
0.078148
0.077308
0.0765344
0.0753971
0.127475
0.12743
0.127242
0.126906
0.126446
0.125892
0.125237
0.124482
0.12364
0.122717
0.121711
0.120625
0.119463
0.11823
0.116934
0.115581
0.114172
0.112717
0.111215
0.109674
0.108104
0.106564
0.105101
0.103702
0.102366
0.101098
0.0999073
0.0987836
0.0977204
0.0967123
0.0957538
0.0948399
0.0939661
0.0931239
0.092314
0.091531
0.0907732
0.0900279
0.0892931
0.088611
0.087671
0.129806
0.129793
0.129662
0.129414
0.129072
0.128659
0.128171
0.127609
0.126983
0.126297
0.125545
0.124734
0.123866
0.122947
0.12198
0.120976
0.119927
0.118833
0.117706
0.116541
0.115341
0.114162
0.113031
0.11194
0.110889
0.109882
0.108925
0.108014
0.107149
0.106328
0.105546
0.104797
0.104079
0.103386
0.102716
0.102073
0.101452
0.100843
0.100247
0.0996904
0.0989672
0.131658
0.131666
0.13157
0.131383
0.131127
0.130813
0.130441
0.130018
0.129542
0.129021
0.128452
0.127839
0.127186
0.126494
0.125768
0.125007
0.12422
0.123401
0.122552
0.121679
0.12078
0.119888
0.119027
0.118194
0.117394
0.116625
0.11589
0.115187
0.114515
0.113874
0.113264
0.11268
0.11212
0.111579
0.111057
0.110557
0.110076
0.109606
0.109148
0.108719
0.108191
0.133074
0.133087
0.133017
0.132875
0.132681
0.132435
0.132142
0.131811
0.131438
0.131032
0.130594
0.13012
0.129616
0.129083
0.128523
0.12794
0.127331
0.126705
0.126057
0.125388
0.124705
0.124026
0.123369
0.122733
0.122117
0.121525
0.120958
0.120419
0.119904
0.119411
0.11894
0.118491
0.118062
0.117648
0.117249
0.116869
0.116504
0.116149
0.115804
0.115484
0.115103
0.134181
0.134198
0.134145
0.134035
0.13388
0.133681
0.13345
0.133182
0.132886
0.13256
0.132209
0.131836
0.131436
0.131016
0.130576
0.130118
0.129643
0.12915
0.128645
0.128126
0.127593
0.127068
0.126561
0.126069
0.125593
0.125135
0.124697
0.124277
0.123878
0.123498
0.123135
0.12279
0.12246
0.122143
0.12184
0.121551
0.121274
0.121008
0.120751
0.12051
0.120236
0.13507
0.135087
0.135047
0.134962
0.134834
0.13467
0.134479
0.134259
0.134017
0.133751
0.133466
0.133163
0.132843
0.132505
0.132152
0.131787
0.131408
0.131017
0.130618
0.130209
0.12979
0.129374
0.128975
0.128589
0.128217
0.127858
0.127515
0.127187
0.126876
0.12658
0.126297
0.126029
0.125773
0.12553
0.125298
0.125076
0.124866
0.124663
0.124468
0.124286
0.124086
0.135796
0.135813
0.135782
0.135711
0.135605
0.135471
0.135311
0.13513
0.134928
0.134709
0.134475
0.134224
0.13396
0.133685
0.133399
0.133104
0.132799
0.132486
0.132165
0.131837
0.131502
0.13117
0.130853
0.130546
0.13025
0.129965
0.129693
0.129433
0.129187
0.128953
0.128731
0.128521
0.128322
0.128132
0.127953
0.127782
0.127619
0.127463
0.127314
0.127175
0.127026
0.136399
0.136414
0.136392
0.136331
0.136243
0.136128
0.135994
0.135841
0.135672
0.135488
0.135291
0.135083
0.134863
0.134634
0.134397
0.134153
0.133903
0.133647
0.133385
0.133119
0.132848
0.132583
0.132328
0.132082
0.131844
0.131616
0.131399
0.131193
0.130997
0.130812
0.130636
0.13047
0.130313
0.130164
0.130022
0.129888
0.129761
0.129639
0.129523
0.129415
0.129303
0.136906
0.13692
0.1369
0.136849
0.136774
0.136676
0.136563
0.136434
0.13629
0.136134
0.135968
0.135792
0.135607
0.135416
0.135217
0.135013
0.134804
0.134591
0.134375
0.134158
0.133939
0.133723
0.133515
0.133315
0.133122
0.132937
0.132763
0.132597
0.13244
0.132292
0.132152
0.132021
0.131896
0.131778
0.131665
0.131559
0.131458
0.131361
0.13127
0.131185
0.131098
0.137337
0.137349
0.137332
0.13729
0.137225
0.137142
0.137045
0.136933
0.13681
0.136676
0.136533
0.136383
0.136226
0.136063
0.135896
0.135725
0.135551
0.135375
0.135196
0.135016
0.134835
0.134656
0.134485
0.13432
0.134162
0.134012
0.13387
0.133736
0.133608
0.133489
0.133377
0.133271
0.133171
0.133076
0.132985
0.1329
0.13282
0.132743
0.132671
0.132604
0.132536
0.137707
0.137718
0.137703
0.137665
0.13761
0.137539
0.137453
0.137357
0.137251
0.137135
0.137013
0.136884
0.136749
0.13661
0.136469
0.136325
0.136178
0.13603
0.135881
0.13573
0.135578
0.135429
0.135287
0.13515
0.13502
0.134896
0.13478
0.134671
0.134568
0.134471
0.13438
0.134293
0.134212
0.134135
0.134062
0.133993
0.133928
0.133867
0.133809
0.133755
0.133703
0.138027
0.138036
0.138023
0.13799
0.137941
0.137878
0.137804
0.13772
0.137627
0.137527
0.137422
0.13731
0.137195
0.137076
0.136955
0.136831
0.136706
0.136579
0.136452
0.136325
0.136199
0.136075
0.135957
0.135844
0.135736
0.135634
0.135538
0.135448
0.135363
0.135283
0.135208
0.135137
0.13507
0.135007
0.134947
0.134891
0.134839
0.13479
0.134743
0.1347
0.134658
0.138305
0.138313
0.138301
0.138272
0.138229
0.138173
0.138108
0.138034
0.137953
0.137866
0.137773
0.137677
0.137577
0.137475
0.13737
0.137264
0.137156
0.137049
0.136941
0.136834
0.136728
0.136624
0.136525
0.13643
0.13634
0.136255
0.136176
0.136101
0.13603
0.135963
0.1359
0.135841
0.135786
0.135734
0.135685
0.135639
0.135596
0.135556
0.135518
0.135483
0.13545
0.138549
0.138556
0.138545
0.138519
0.138481
0.138432
0.138374
0.138308
0.138237
0.13816
0.138079
0.137995
0.137908
0.13782
0.137729
0.137637
0.137545
0.137453
0.137361
0.137269
0.137179
0.13709
0.137006
0.136926
0.136851
0.13678
0.136713
0.13665
0.136591
0.136535
0.136482
0.136433
0.136387
0.136343
0.136303
0.136265
0.13623
0.136197
0.136166
0.136137
0.136111
0.138763
0.138769
0.13876
0.138737
0.138703
0.138659
0.138608
0.13855
0.138487
0.138419
0.138348
0.138273
0.138197
0.138119
0.13804
0.137961
0.137881
0.137802
0.137722
0.137644
0.137567
0.137492
0.137421
0.137354
0.13729
0.13723
0.137173
0.137119
0.137069
0.137021
0.136977
0.136936
0.136897
0.136861
0.136827
0.136796
0.136767
0.136739
0.136714
0.13669
0.136669
0.138953
0.138958
0.13895
0.13893
0.138899
0.138861
0.138815
0.138764
0.138708
0.138648
0.138585
0.138519
0.138452
0.138383
0.138314
0.138244
0.138175
0.138106
0.138037
0.13797
0.137904
0.13784
0.137779
0.137722
0.137667
0.137616
0.137567
0.137521
0.137479
0.137439
0.137401
0.137366
0.137334
0.137304
0.137275
0.137249
0.137225
0.137203
0.137182
0.137162
0.137145
0.139121
0.139126
0.139119
0.139101
0.139074
0.13904
0.139
0.138955
0.138905
0.138852
0.138797
0.138739
0.138679
0.138619
0.138558
0.138496
0.138435
0.138375
0.138315
0.138257
0.1382
0.138145
0.138092
0.138043
0.137996
0.137952
0.13791
0.137871
0.137835
0.137801
0.137769
0.13774
0.137713
0.137687
0.137664
0.137642
0.137622
0.137603
0.137586
0.13757
0.137556
0.13927
0.139275
0.139269
0.139253
0.13923
0.139201
0.139165
0.139126
0.139082
0.139035
0.138986
0.138935
0.138882
0.138829
0.138775
0.138721
0.138668
0.138615
0.138563
0.138512
0.138463
0.138415
0.13837
0.138327
0.138287
0.138249
0.138213
0.13818
0.138149
0.13812
0.138093
0.138069
0.138046
0.138024
0.138004
0.137986
0.13797
0.137954
0.13794
0.137927
0.137916
0.139404
0.139408
0.139403
0.13939
0.13937
0.139344
0.139314
0.139279
0.139241
0.1392
0.139157
0.139111
0.139065
0.139018
0.138971
0.138924
0.138877
0.138831
0.138785
0.138741
0.138698
0.138657
0.138618
0.138581
0.138546
0.138513
0.138483
0.138455
0.138428
0.138403
0.138381
0.13836
0.13834
0.138322
0.138306
0.138291
0.138277
0.138264
0.138252
0.138241
0.138232
0.139523
0.139527
0.139523
0.139512
0.139496
0.139474
0.139448
0.139418
0.139385
0.139349
0.139311
0.139272
0.139231
0.13919
0.139148
0.139107
0.139066
0.139025
0.138986
0.138947
0.13891
0.138874
0.138841
0.138809
0.138779
0.138751
0.138725
0.1387
0.138678
0.138657
0.138638
0.13862
0.138603
0.138588
0.138574
0.138562
0.13855
0.138539
0.13853
0.138521
0.138514
0.13963
0.139633
0.139631
0.139623
0.13961
0.139592
0.13957
0.139544
0.139516
0.139485
0.139452
0.139418
0.139382
0.139346
0.13931
0.139274
0.139238
0.139203
0.139169
0.139136
0.139103
0.139073
0.139044
0.139016
0.138991
0.138966
0.138944
0.138923
0.138904
0.138886
0.13887
0.138855
0.138841
0.138828
0.138817
0.138806
0.138796
0.138788
0.13878
0.138772
0.138767
0.139725
0.139729
0.139728
0.139722
0.139713
0.139699
0.139681
0.13966
0.139636
0.13961
0.139582
0.139553
0.139523
0.139492
0.139461
0.13943
0.139399
0.139368
0.139339
0.13931
0.139283
0.139257
0.139232
0.139208
0.139187
0.139166
0.139147
0.139129
0.139113
0.139098
0.139085
0.139072
0.139061
0.139051
0.139041
0.139033
0.139026
0.13902
0.139014
0.139009
0.139007
0.139811
0.139815
0.139815
0.139813
0.139806
0.139796
0.139782
0.139766
0.139747
0.139726
0.139704
0.13968
0.139655
0.139629
0.139603
0.139578
0.139552
0.139527
0.139502
0.139478
0.139455
0.139434
0.139413
0.139394
0.139377
0.13936
0.139345
0.139331
0.139319
0.139308
0.139299
0.139291
0.139284
0.139279
0.139274
0.139271
0.139269
0.139268
0.139267
0.139267
0.139269
0.139886
0.13989
0.139893
0.139893
0.139889
0.139883
0.139873
0.139862
0.139849
0.139834
0.139818
0.1398
0.139782
0.139763
0.139743
0.139723
0.139704
0.139685
0.139666
0.139649
0.139632
0.139617
0.139603
0.139591
0.13958
0.13957
0.139562
0.139556
0.139551
0.139547
0.139544
0.139543
0.139542
0.139542
0.139543
0.139544
0.139545
0.139547
0.139549
0.13955
0.139554
0.139949
0.139953
0.139956
0.139958
0.139956
0.139953
0.139948
0.139942
0.139935
0.139927
0.139918
0.139908
0.139897
0.139886
0.139875
0.139864
0.139853
0.139842
0.139832
0.139823
0.139814
0.139807
0.139801
0.139796
0.139791
0.139787
0.139784
0.139782
0.139781
0.13978
0.139779
0.139779
0.13978
0.13978
0.139781
0.139782
0.139784
0.139785
0.139786
0.139788
0.13979
0.139988
0.139991
0.139993
0.139994
0.139993
0.139992
0.13999
0.139987
0.139984
0.139981
0.139977
0.139972
0.139967
0.139962
0.139957
0.139952
0.139947
0.139942
0.139937
0.139933
0.139929
0.139925
0.139922
0.13992
0.139918
0.139916
0.139915
0.139914
0.139913
0.139913
0.139913
0.139913
0.139913
0.139914
0.139915
0.139915
0.139916
0.139917
0.139918
0.139919
0.139921
0.140008
0.14001
0.140011
0.140012
0.140012
0.140012
0.140012
0.140011
0.14001
0.140008
0.140007
0.140005
0.140003
0.140001
0.139999
0.139997
0.139995
0.139992
0.13999
0.139988
0.139987
0.139985
0.139984
0.139983
0.139982
0.139982
0.139981
0.139981
0.139981
0.139981
0.139982
0.139982
0.139983
0.139983
0.139984
0.139985
0.139986
0.139987
0.139987
0.139988
0.139989
0.140018
0.140019
0.14002
0.140021
0.140022
0.140023
0.140023
0.140023
0.140023
0.140023
0.140023
0.140023
0.140023
0.140022
0.140022
0.140021
0.140021
0.14002
0.14002
0.14002
0.140019
0.140019
0.140019
0.140019
0.140019
0.140019
0.14002
0.14002
0.140021
0.140021
0.140022
0.140023
0.140023
0.140024
0.140025
0.140026
0.140027
0.140028
0.140029
0.14003
0.140031
0.140022
0.140023
0.140024
0.140025
0.140026
0.140027
0.140028
0.140029
0.14003
0.14003
0.140031
0.140032
0.140032
0.140033
0.140033
0.140034
0.140034
0.140035
0.140036
0.140036
0.140037
0.140038
0.140038
0.140039
0.14004
0.140041
0.140041
0.140042
0.140043
0.140044
0.140045
0.140046
0.140047
0.140048
0.140049
0.14005
0.140051
0.140052
0.140053
0.140054
0.140055
0.140022
0.140023
0.140024
0.140025
0.140026
0.140027
0.140028
0.140029
0.14003
0.140031
0.140032
0.140033
0.140035
0.140036
0.140037
0.140038
0.140039
0.14004
0.140041
0.140042
0.140043
0.140045
0.140046
0.140047
0.140048
0.140049
0.140051
0.140052
0.140053
0.140054
0.140055
0.140057
0.140058
0.140059
0.14006
0.140061
0.140062
0.140063
0.140064
0.140065
0.140066
0.140019
0.140019
0.14002
0.140021
0.140022
0.140023
0.140024
0.140025
0.140026
0.140027
0.140029
0.14003
0.140031
0.140032
0.140033
0.140034
0.140035
0.140036
0.140037
0.140038
0.140039
0.140041
0.140042
0.140043
0.140045
0.140046
0.140048
0.140049
0.14005
0.140052
0.140053
0.140054
0.140056
0.140057
0.140058
0.140059
0.14006
0.140061
0.140062
0.140063
0.140064
0.140013
0.140013
0.140014
0.140014
0.140015
0.140016
0.140017
0.140018
0.140018
0.140019
0.14002
0.14002
0.140021
0.140021
0.140022
0.140022
0.140022
0.140022
0.140022
0.140022
0.140021
0.140021
0.140021
0.140021
0.140022
0.140023
0.140024
0.140025
0.140026
0.140027
0.140029
0.14003
0.140031
0.140033
0.140034
0.140036
0.140037
0.140038
0.140039
0.140041
0.140042
0.140005
0.140005
0.140005
0.140005
0.140006
0.140006
0.140006
0.140007
0.140007
0.140007
0.140007
0.140007
0.140007
0.140007
0.140006
0.140005
0.140004
0.140002
0.139999
0.139991
0.139983
0.139976
0.139969
0.139962
0.139956
0.139951
0.139947
0.139944
0.139942
0.139941
0.13994
0.139941
0.139942
0.139943
0.139945
0.139947
0.139949
0.139951
0.139953
0.139955
0.139957
0.00298282
0.00456309
0.00597284
0.00726573
0.00847271
0.00961967
0.0107227
0.0117899
0.0128268
0.0138386
0.0148305
0.0158118
0.0167923
0.0177828
0.0187872
0.0197882
0.0208301
0.0220381
0.0230323
0.0230521
0.0250408
0.0355351
0.0517486
0.0660325
0.076283
0.083655
0.0893257
0.0939266
0.0977767
0.101061
0.103903
0.106391
0.108588
0.110545
0.112301
0.113886
0.115326
0.11664
0.117845
0.118955
0.119981
0.120932
0.121817
0.122643
0.123416
0.124141
0.124822
0.125465
0.126072
0.126646
0.127189
0.127702
0.128189
0.12865
0.129085
0.129499
0.129892
0.130267
0.130625
0.130968
0.131297
0.131614
0.131919
0.132214
0.132499
0.132777
0.133048
0.133312
0.13357
0.133822
0.134065
0.134319
0.134516
0.134925
0.00435102
0.00593613
0.0074351
0.0087245
0.00989674
0.0110046
0.0120627
0.0130777
0.0140567
0.0150066
0.0159336
0.0168509
0.0177686
0.018695
0.0196332
0.0205665
0.0215307
0.0226509
0.0236053
0.0236009
0.0252479
0.0351699
0.0511975
0.0656637
0.0761509
0.0836955
0.0894851
0.0941775
0.098106
0.101462
0.10437
0.106919
0.109175
0.111186
0.112993
0.114625
0.116109
0.117465
0.118708
0.119855
0.120915
0.121899
0.122816
0.123673
0.124476
0.125229
0.125938
0.126606
0.127238
0.127836
0.1284
0.128934
0.12944
0.129919
0.130373
0.130803
0.131212
0.131601
0.131971
0.132325
0.132661
0.132984
0.133292
0.133586
0.133869
0.13414
0.1344
0.13465
0.13489
0.135121
0.13534
0.13556
0.13573
0.136074
0.00679708
0.0082342
0.00952139
0.0106255
0.0117135
0.0127611
0.0137569
0.0147057
0.0156167
0.0164975
0.017355
0.0182092
0.0190662
0.0199292
0.0208003
0.0216659
0.0225461
0.0235531
0.0244963
0.0245962
0.0255882
0.0338572
0.0489333
0.0635119
0.0744524
0.0823923
0.0884695
0.0933807
0.0974888
0.100999
0.104046
0.10672
0.109088
0.111201
0.113101
0.114819
0.11638
0.117806
0.119114
0.120321
0.121437
0.122474
0.12344
0.124343
0.12519
0.125987
0.126736
0.127444
0.128114
0.128748
0.129348
0.129916
0.130455
0.130966
0.131451
0.131912
0.13235
0.132766
0.133162
0.133539
0.133898
0.134239
0.134564
0.134873
0.135167
0.135446
0.13571
0.135961
0.136198
0.136422
0.13663
0.136834
0.13699
0.137289
0.00941036
0.0108067
0.0120924
0.0132081
0.0142055
0.0151346
0.0160166
0.0168611
0.0176757
0.0184654
0.019238
0.0200258
0.0208186
0.021613
0.0224104
0.0232024
0.0239947
0.0248666
0.0257761
0.0260831
0.026475
0.0322774
0.0453509
0.0596323
0.0710796
0.0795939
0.0861259
0.0913904
0.0957873
0.0995446
0.102808
0.105676
0.108219
0.11049
0.112532
0.114379
0.116056
0.117588
0.118993
0.120288
0.121485
0.122597
0.123632
0.124601
0.12551
0.126365
0.127171
0.127933
0.128655
0.129339
0.129988
0.130604
0.131189
0.131746
0.132276
0.132781
0.133261
0.133718
0.134154
0.134568
0.134963
0.135338
0.135694
0.136031
0.13635
0.136652
0.136936
0.137202
0.137451
0.137684
0.137898
0.1381
0.138257
0.138535
0.0122823
0.0135388
0.0147667
0.0158894
0.0169023
0.0178329
0.0187022
0.019524
0.0203089
0.0210642
0.0217955
0.0225158
0.0232302
0.0239402
0.024648
0.0253503
0.0260459
0.0267679
0.0275944
0.028113
0.0282577
0.0314114
0.0412544
0.0543186
0.0660108
0.0751575
0.0822785
0.0880275
0.0928275
0.0969299
0.100497
0.103638
0.106425
0.108917
0.11116
0.113189
0.115031
0.116711
0.118251
0.119669
0.120978
0.122193
0.123323
0.12438
0.125371
0.126304
0.127184
0.128016
0.128805
0.129554
0.130266
0.130944
0.131591
0.132208
0.132796
0.133358
0.133894
0.134406
0.134895
0.135361
0.135805
0.136228
0.136629
0.13701
0.13737
0.13771
0.138029
0.138327
0.138605
0.138863
0.139098
0.139318
0.13949
0.139774
0.0153772
0.0164752
0.0175886
0.0186526
0.019651
0.0205929
0.021486
0.0223359
0.0231481
0.023928
0.0246796
0.0254083
0.0261191
0.0268148
0.0274984
0.0281703
0.0288287
0.0294861
0.0301977
0.0308157
0.0310538
0.0322644
0.0380749
0.0484391
0.0595419
0.0690842
0.0768063
0.0831256
0.0884271
0.0929684
0.0969273
0.100423
0.103533
0.106318
0.108827
0.1111
0.113164
0.115045
0.116767
0.118351
0.119812
0.121163
0.12242
0.123592
0.124691
0.125725
0.126699
0.127621
0.128495
0.129326
0.130118
0.130874
0.131596
0.132286
0.132947
0.13358
0.134187
0.134767
0.135324
0.135856
0.136364
0.13685
0.137312
0.137751
0.138168
0.138562
0.138933
0.13928
0.139604
0.139905
0.14018
0.140436
0.140639
0.140959
0.018665
0.0196292
0.0206271
0.0216047
0.0225478
0.0234622
0.0243526
0.0252195
0.0260628
0.0268832
0.027681
0.0284571
0.0292125
0.0299485
0.0306663
0.0313666
0.0320487
0.0327153
0.0333934
0.0340581
0.034527
0.0350534
0.0375559
0.043842
0.0527573
0.0618438
0.0698467
0.0766635
0.0824855
0.0875157
0.0919314
0.0958537
0.0993584
0.102507
0.105353
0.107938
0.110288
0.11243
0.114391
0.116193
0.117853
0.119386
0.120807
0.122131
0.123369
0.124531
0.125626
0.12666
0.127641
0.128574
0.129463
0.130313
0.131127
0.131907
0.132656
0.133375
0.134066
0.13473
0.135368
0.135981
0.136569
0.137133
0.137671
0.138185
0.138675
0.13914
0.13958
0.139994
0.140383
0.140745
0.14108
0.141392
0.141645
0.142034
0.0221953
0.023062
0.0239711
0.0248739
0.0257563
0.026623
0.0274801
0.0283295
0.0291713
0.0300051
0.0308294
0.0316429
0.0324439
0.033231
0.034003
0.0347587
0.0354971
0.0362174
0.0369276
0.0376334
0.0382741
0.0388191
0.0398416
0.0426742
0.0480393
0.0550162
0.0622709
0.0690984
0.0752167
0.0806366
0.0854845
0.0898484
0.0937811
0.0973376
0.100576
0.103533
0.106231
0.108696
0.110956
0.113035
0.114949
0.116713
0.118347
0.119865
0.121281
0.122608
0.123855
0.12503
0.126143
0.127201
0.12821
0.129174
0.130097
0.130984
0.131837
0.132658
0.133449
0.134211
0.134946
0.135655
0.136337
0.136994
0.137625
0.13823
0.138809
0.139362
0.139889
0.140389
0.140861
0.141305
0.141719
0.14211
0.142431
0.142925
0.0261508
0.0269527
0.0278019
0.0286515
0.0294869
0.0303096
0.0311254
0.0319377
0.0327486
0.0335594
0.0343704
0.035181
0.0359899
0.0367953
0.0375953
0.0383877
0.0391704
0.0399415
0.0407008
0.0414524
0.0421874
0.0428744
0.0436014
0.0448237
0.0472659
0.0512494
0.0563977
0.0620568
0.0676787
0.0729987
0.0780122
0.0826616
0.0869288
0.0908466
0.0944683
0.097814
0.10089
0.103715
0.106321
0.108729
0.11095
0.112999
0.114894
0.116654
0.118295
0.119827
0.121263
0.122614
0.12389
0.1251
0.126253
0.127354
0.128408
0.129421
0.130396
0.131335
0.132242
0.133119
0.133966
0.134786
0.135578
0.136343
0.137082
0.137793
0.138479
0.139137
0.139768
0.140372
0.140946
0.141492
0.142006
0.142498
0.142907
0.143544
0.0308495
0.0316019
0.0324058
0.0332133
0.03401
0.0347942
0.0355698
0.03634
0.0371074
0.0378743
0.0386424
0.039413
0.0401865
0.0409627
0.041741
0.0425203
0.0432991
0.044076
0.0448494
0.0456192
0.0463874
0.0471474
0.0478976
0.0487221
0.0498772
0.0517094
0.0544348
0.0580032
0.0621433
0.0665463
0.0710105
0.0753919
0.0795849
0.0835826
0.0874134
0.091032
0.0944074
0.0975515
0.100494
0.103242
0.105792
0.108154
0.110347
0.11239
0.114296
0.116074
0.117737
0.119298
0.120771
0.122165
0.12349
0.124753
0.125961
0.127121
0.128236
0.129313
0.130353
0.131359
0.132334
0.133279
0.134196
0.135085
0.135946
0.13678
0.137587
0.138367
0.139119
0.139843
0.140538
0.141205
0.141838
0.142453
0.142968
0.143787
0.0366507
0.0373451
0.038096
0.0388538
0.0396043
0.0403441
0.0410743
0.041797
0.0425141
0.0432273
0.0439387
0.0446497
0.0453618
0.0460759
0.0467927
0.0475127
0.0482361
0.0489628
0.0496926
0.0504255
0.0511639
0.0519099
0.0526597
0.0534164
0.0542276
0.0552098
0.0565241
0.058313
0.0606321
0.0634344
0.0666156
0.0700475
0.0735953
0.0771695
0.0807232
0.084203
0.0875493
0.0907725
0.0938952
0.0968733
0.0996764
0.102301
0.104772
0.107097
0.109279
0.11132
0.113231
0.115026
0.116721
0.118325
0.119847
0.121297
0.12268
0.124006
0.125281
0.12651
0.127699
0.128851
0.129968
0.131053
0.132108
0.133134
0.134131
0.1351
0.136042
0.136957
0.137844
0.138704
0.139536
0.14034
0.14111
0.141868
0.142505
0.143542
0.0438203
0.0444283
0.0451008
0.0457856
0.0464689
0.0471461
0.0478162
0.0484794
0.0491361
0.0497867
0.0504323
0.0510738
0.0517124
0.0523492
0.0529852
0.0536213
0.0542586
0.0548983
0.0555413
0.0561889
0.0568438
0.0575093
0.0581859
0.0588699
0.059563
0.0602859
0.061086
0.0620338
0.0632062
0.0646641
0.0664395
0.0685305
0.070899
0.0734894
0.0762467
0.0791131
0.0820207
0.0849305
0.0878243
0.0906704
0.0934254
0.0960776
0.0986701
0.101164
0.103538
0.105781
0.107899
0.109909
0.111818
0.113632
0.115356
0.116997
0.118564
0.120065
0.121509
0.122903
0.124251
0.125558
0.126827
0.128061
0.129263
0.130433
0.131575
0.132689
0.133775
0.134835
0.135868
0.136875
0.137855
0.138808
0.139729
0.140644
0.141417
0.142702
0.0524881
0.0529742
0.0535283
0.0541026
0.0546861
0.0552737
0.0558613
0.0564455
0.0570242
0.0575964
0.0581621
0.0587216
0.0592754
0.0598241
0.0603684
0.0609091
0.0614471
0.0619839
0.0625207
0.0630593
0.0636023
0.0641528
0.0647123
0.0652796
0.0658528
0.0664328
0.067028
0.0676561
0.0683454
0.0691309
0.0700502
0.0711377
0.0724179
0.0739018
0.0755887
0.0774651
0.079504
0.0816737
0.0839445
0.086285
0.0886543
0.091022
0.0933821
0.0957155
0.0980003
0.100211
0.102356
0.104452
0.10648
0.108429
0.110296
0.112084
0.113799
0.115451
0.117048
0.118594
0.120093
0.121548
0.122964
0.124343
0.125688
0.127002
0.128287
0.129545
0.130776
0.131983
0.133165
0.134322
0.135453
0.136561
0.137638
0.138719
0.139633
0.141185
0.0629717
0.0631665
0.0634645
0.0638394
0.0642682
0.0647228
0.0651844
0.0656469
0.0661092
0.0665705
0.0670297
0.0674848
0.0679348
0.0683789
0.0688175
0.0692509
0.06968
0.0701057
0.0705288
0.0709509
0.0713738
0.0717996
0.0722297
0.0726641
0.073102
0.0735428
0.0739877
0.07444
0.0749062
0.0753966
0.0759251
0.0765093
0.0771686
0.0779231
0.0787908
0.0797872
0.0809211
0.0821943
0.0836054
0.0851464
0.0868001
0.0885447
0.0903623
0.0922343
0.0941406
0.0960566
0.0979678
0.0998714
0.101758
0.103615
0.105433
0.107206
0.108942
0.110649
0.11232
0.113953
0.115547
0.117103
0.118624
0.120111
0.121568
0.122998
0.124405
0.125788
0.127149
0.128488
0.129805
0.1311
0.132374
0.133627
0.134852
0.136095
0.137147
0.138966
0.0751394
0.0751461
0.0752064
0.0752828
0.0753722
0.075477
0.075624
0.07585
0.0761343
0.0764459
0.0767648
0.0770829
0.0773996
0.0777155
0.0780306
0.0783445
0.0786563
0.0789655
0.0792722
0.0795769
0.0798806
0.0801846
0.0804897
0.080796
0.0811031
0.0814106
0.0817189
0.0820287
0.0823414
0.0826593
0.0829859
0.083326
0.0836864
0.0840754
0.0845035
0.0849824
0.0855244
0.0861417
0.0868443
0.0876418
0.0885407
0.0895428
0.0906458
0.0918445
0.0931304
0.094491
0.0959124
0.0973837
0.0988946
0.100434
0.10199
0.103554
0.105118
0.106682
0.108243
0.109796
0.111337
0.112865
0.114378
0.115874
0.117355
0.118832
0.120298
0.121752
0.123192
0.124618
0.126027
0.127421
0.128799
0.130166
0.131512
0.132891
0.134061
0.136117
0.0873555
0.0872452
0.0871728
0.0871094
0.087052
0.0870026
0.0869641
0.0869398
0.0869321
0.0869417
0.0869694
0.0870452
0.0871816
0.0873546
0.0875437
0.0877365
0.0879282
0.088119
0.0883099
0.0885016
0.0886942
0.0888876
0.0890814
0.089275
0.0894681
0.0896604
0.0898517
0.0900424
0.0902326
0.0904229
0.0906139
0.0908065
0.0910023
0.0912031
0.091412
0.0916331
0.0918718
0.0921347
0.0924295
0.0927643
0.093148
0.0935897
0.0940977
0.0946786
0.0953373
0.0960758
0.0968936
0.0977883
0.0987559
0.0997913
0.100888
0.102038
0.103236
0.104474