/*--------------------------------*- C++ -*----------------------------------*\
| =========                 |                                                 |
| \\      /  F ield         | OpenFOAM: The Open Source CFD Toolbox           |
|  \\    /   O peration     | Version:  5.x                                   |
|   \\  /    A nd           | Web:      www.OpenFOAM.org                      |
|    \\/     M anipulation  |                                                 |
\*---------------------------------------------------------------------------*/
FoamFile
{
    version     2.0;
    format      ascii;
    class       volScalarField;
    location    "100";
    object      p;
}
// * * * * * * * * * * * * * * * * * * * * * * * * * * * * * * * * * * * * * //

dimensions      [0 2 -2 0 0 0 0];

internalField   nonuniform List<scalar> 
11040
(
-0.399658
-385.794
-515.77
-487.768
-432.034
-386.928
-354.116
-325.883
-285.745
-243.643
-206.001
-172.76
-142.699
-115.321
-90.7939
-69.2332
-48.6967
-25.401
-1.48445
21.7333
44.3549
65.7033
85.285
103.632
121.208
138.102
152.976
165.994
178.058
189.469
200.297
210.649
220.649
230.421
240.05
249.62
259.132
268.96
278.525
290.057
297.087
147.215
-123.141
-293.746
-359.906
-369.128
-355.363
-335.459
-313.401
-279.99
-241.917
-205.803
-173.098
-143.257
-115.918
-91.2433
-69.3511
-48.6245
-25.6245
-1.92136
21.2162
43.8036
65.1238
84.703
103.051
120.589
137.415
152.328
165.432
177.558
189.017
199.885
210.273
220.301
230.098
239.747
249.333
258.856
268.703
278.235
289.993
296.431
218.333
0.769017
-186.072
-290.561
-325.187
-324.627
-311.766
-294.986
-268.816
-235.661
-201.896
-170.456
-141.465
-114.66
-90.1942
-68.2352
-47.5681
-25.0834
-1.70037
21.2914
43.7734
65.0171
84.545
102.846
120.293
137.009
151.951
165.126
177.286
188.765
199.654
210.059
220.102
229.909
239.564
249.154
258.673
268.519
278.013
289.872
296.189
257.536
96.5803
-68.5394
-189.645
-252.666
-274.988
-276.533
-268.785
-251.231
-224.795
-195.005
-165.808
-138.233
-112.34
-88.344
-66.4822
-45.9363
-24.025
-1.08537
21.6585
43.9612
65.0651
84.4911
102.705
120.026
136.596
151.535
164.768
176.957
188.455
199.363
209.783
219.837
229.649
239.305
248.889
258.391
268.211
277.65
289.435
295.626
278.829
161.976
30.1603
-88.1
-169.999
-214.403
-232.394
-235.454
-227.208
-208.766
-184.411
-158.489
-133
-108.498
-85.3272
-63.8096
-43.5076
-22.2748
0.0337344
22.3814
44.404
65.2895
84.552
102.628
119.781
136.156
151.053
164.335
176.553
188.065
198.986
209.416
219.473
229.281
238.922
248.48
257.941
267.687
277.026
288.518
294.412
289.434
204.011
103.771
1.33741
-84.5092
-143.56
-177.242
-192.906
-195.32
-186.205
-168.876
-147.575
-125.088
-102.608
-80.7429
-59.9388
-40.0955
-19.657
1.83417
23.6125
45.229
65.7989
84.8174
102.687
119.616
135.743
150.545
163.851
176.087
187.599
198.52
208.946
218.991
228.775
238.381
247.881
257.26
266.866
276.036
286.991
292.544
293.399
229.672
155.05
73.3162
-4.76101
-68.6374
-113.535
-141.181
-154.758
-155.89
-147.06
-131.923
-113.627
-94.0122
-74.086
-54.4912
-35.4306
-15.9466
4.52674
25.5221
46.5667
66.6943
85.3651
102.943
119.581
135.4
150.042
163.325
175.556
187.046
197.944
208.344
218.352
228.086
237.621
247.019
256.26
265.637
274.54
284.736
289.969
293.421
244.817
189.183
126.68
61.9394
1.98026
-47.0529
-82.9438
-106.226
-117.381
-117.833
-110.228
-97.4832
-81.8172
-64.6572
-46.9223
-29.116
-10.8378
8.39385
28.3542
48.6064
68.1224
86.3105
103.484
119.748
135.193
149.593
162.787
174.969
186.405
197.245
207.584
217.52
227.16
236.575
245.809
254.837
263.879
272.401
281.671
286.625
291.158
253.295
211.229
164.083
113.252
62.2148
15.608
-23.1427
-52.6338
-71.9119
-81.1251
-81.6344
-75.55
-64.9769
-51.5727
-36.5235
-20.6169
-3.93295
13.779
32.4134
51.6035
70.2962
87.832
104.458
120.236
135.223
149.284
162.294
174.361
185.69
196.423
206.652
216.462
225.952
235.18
244.173
252.896
261.492
269.517
277.778
282.5
287.662
257.612
225.215
189.508
150.577
109.693
69.4649
32.7153
1.39819
-22.6707
-38.5901
-46.4832
-47.3465
-42.6664
-33.9515
-22.4826
-9.24846
5.29402
21.1042
38.0662
55.8706
73.4774
90.1534
106.058
121.209
135.629
149.238
161.944
173.8
184.944
195.5
205.549
215.165
224.431
233.391
242.054
250.374
258.427
265.865
273.127
277.639
283.616
259.386
233.976
206.585
176.899
145.148
112.496
80.682
51.2647
26.0758
6.50337
-6.73756
-13.6374
-14.8241
-11.2917
-4.12248
5.68074
17.4447
30.8742
45.7557
61.7895
77.9832
93.542
108.515
122.867
136.586
149.61
161.873
173.39
184.244
194.527
204.307
213.641
222.593
231.196
239.436
247.264
254.707
261.507
267.863
272.146
279.461
259.67
239.415
218.074
195.276
170.866
145.239
119.27
93.8971
70.4753
50.305
34.4099
23.407
17.4029
16.0532
18.7139
24.6005
33.0318
43.5853
55.9472
69.7931
84.1993
98.332
112.117
125.458
138.302
150.586
162.247
173.272
183.702
193.592
202.991
211.937
220.477
228.627
236.36
243.626
250.426
256.583
262.167
266.194
275.477
259.148
242.783
225.906
208.187
189.378
169.535
149.03
128.314
108.218
89.6701
73.5924
60.7803
51.7409
46.6361
45.3041
47.3244
52.1982
59.538
69.0106
80.2801
92.5213
104.894
117.203
129.285
141.044
152.397
163.271
173.63
183.476
192.83
201.717
210.157
218.177
225.781
232.934
239.592
245.75
251.293
256.238
260.003
271.829
258.256
244.895
231.375
217.429
202.815
187.468
171.513
155.124
138.744
122.936
108.346
95.6622
85.4796
78.2048
74.0137
72.8339
74.4316
78.5763
85.0174
93.4677
103.246
113.555
124.104
134.669
145.111
155.32
165.204
174.7
183.78
192.436
200.667
208.473
215.867
222.84
229.357
235.381
240.912
245.884
250.297
253.811
268.602
257.264
246.271
235.328
224.226
212.758
200.828
188.454
175.682
162.722
149.88
137.549
126.209
116.356
108.428
102.739
99.4346
98.5083
99.9112
103.533
109.192
116.398
124.459
133.035
141.863
150.772
159.629
168.319
176.756
184.885
192.674
200.099
207.145
213.809
220.077
225.915
231.294
236.221
240.661
244.611
247.876
265.854
256.356
247.259
238.329
229.403
220.315
210.968
201.343
191.432
181.328
171.184
161.22
151.732
143.064
135.571
129.564
125.266
122.794
122.228
123.586
126.807
131.601
137.434
143.969
150.946
158.18
165.525
172.854
180.062
187.076
193.845
200.33
206.502
212.347
217.846
222.969
227.692
232.026
235.957
239.479
242.481
263.632
255.669
248.117
240.789
233.561
226.298
218.916
211.384
203.677
195.833
187.928
180.076
172.451
165.27
158.778
153.22
148.806
145.686
143.995
143.824
145.198
148
151.858
156.491
161.67
167.221
173.003
178.89
184.773
190.569
196.215
201.666
206.881
211.843
216.527
220.907
224.963
228.707
232.131
235.23
237.939
261.94
255.199
248.851
242.748
236.796
230.883
224.937
218.927
212.827
206.654
200.443
194.257
188.199
182.405
177.032
172.256
168.236
165.108
163.005
162.037
162.271
163.692
166.068
169.184
172.858
176.946
181.326
185.883
190.515
195.142
199.701
204.142
208.425
212.526
216.421
220.085
223.502
226.68
229.615
232.298
234.692
260.681
254.889
249.463
244.288
239.289
234.371
229.473
224.567
219.629
214.664
209.692
204.749
199.897
195.223
190.832
186.843
183.374
180.529
178.418
177.144
176.781
177.362
178.748
180.784
183.335
186.286
189.54
193
196.579
200.204
203.817
207.372
210.831
214.168
217.361
220.387
223.231
225.899
228.385
230.682
232.762
259.747
254.711
250.011
245.558
241.291
237.13
233.019
228.935
224.857
220.786
216.731
212.716
208.782
204.984
201.395
198.097
195.172
192.699
190.762
189.446
188.816
188.924
189.685
190.989
192.739
194.849
197.242
199.841
202.575
205.382
208.213
211.026
213.787
216.473
219.064
221.538
223.883
226.1
228.185
230.129
231.912
259.05
254.629
250.516
246.641
242.954
239.384
235.885
232.434
229.014
225.623
222.267
218.96
215.73
212.617
209.67
206.945
204.503
202.4
200.699
199.464
198.75
198.61
198.989
199.81
201.004
202.506
204.258
206.2
208.276
210.435
212.636
214.844
217.031
219.176
221.261
223.268
225.184
227.012
228.744
230.374
231.884
258.528
254.618
250.988
247.585
244.368
241.274
238.261
235.309
232.405
229.544
226.73
223.973
221.293
218.717
216.28
214.023
211.989
210.219
208.757
207.654
206.951
206.695
206.849
207.357
208.171
209.241
210.525
211.975
213.548
215.204
216.909
218.636
220.36
222.065
223.734
225.352
226.91
228.406
229.835
231.19
232.457
258.137
254.656
251.431
248.42
245.59
242.885
240.266
237.717
235.225
232.786
230.402
228.08
225.834
223.684
221.656
219.778
218.082
216.597
215.356
214.396
213.748
213.45
213.476
213.785
214.34
215.107
216.051
217.137
218.331
219.601
220.923
222.272
223.629
224.98
226.313
227.614
228.875
230.094
231.267
232.387
233.442
257.846
254.73
251.847
249.167
246.66
244.277
241.984
239.765
237.608
235.511
233.473
231.5
229.601
227.793
226.092
224.522
223.103
221.858
220.81
219.987
219.41
219.111
219.068
219.25
219.632
220.185
220.884
221.703
222.613
223.592
224.618
225.674
226.743
227.815
228.878
229.923
230.942
231.934
232.893
233.815
234.689
257.631
254.828
252.238
249.838
247.605
245.493
243.471
241.526
239.646
237.829
236.074
234.385
232.769
231.236
229.802
228.481
227.291
226.245
225.362
224.661
224.158
223.877
223.801
223.905
224.169
224.573
225.096
225.717
226.416
227.174
227.974
228.803
229.649
230.501
231.35
232.19
233.014
233.82
234.604
235.362
236.084
257.474
254.941
252.603
250.444
248.445
246.563
244.77
243.054
241.406
239.822
238.301
236.845
235.46
234.154
232.937
231.821
230.818
229.937
229.193
228.599
228.166
227.913
227.824
227.879
228.064
228.362
228.757
229.233
229.774
230.365
230.994
231.648
232.319
232.999
233.681
234.358
235.025
235.681
236.322
236.945
237.541
257.361
255.064
252.945
250.994
249.196
247.51
245.912
244.391
242.938
241.55
240.224
238.962
237.769
236.65
235.612
234.664
233.815
233.072
232.444
231.942
231.572
231.349
231.258
231.284
231.415
231.638
231.941
232.31
232.732
233.197
233.694
234.214
234.75
235.295
235.844
236.392
236.934
237.469
237.994
238.507
238.999
257.284
255.192
253.263
251.493
249.869
248.352
246.922
245.568
244.281
243.057
241.896
240.798
239.764
238.8
237.911
237.103
236.382
235.754
235.223
234.798
234.484
234.29
234.204
234.214
234.308
234.478
234.712
235.001
235.335
235.704
236.1
236.516
236.947
237.387
237.831
238.276
238.718
239.157
239.588
240.011
240.419
257.233
255.32
253.559
251.947
250.474
249.104
247.819
246.607
245.462
244.38
243.359
242.398
241.5
240.666
239.902
239.21
238.596
238.062
237.614
237.255
236.988
236.822
236.744
236.744
236.814
236.945
237.129
237.358
237.624
237.92
238.238
238.574
238.923
239.28
239.642
240.005
240.368
240.728
241.084
241.434
241.772
257.203
255.448
253.833
252.36
251.019
249.777
248.617
247.529
246.507
245.546
244.644
243.801
243.017
242.294
241.634
241.04
240.516
240.062
239.682
239.378
239.153
239.012
238.943
238.938
238.991
239.094
239.241
239.425
239.639
239.878
240.137
240.41
240.694
240.986
241.283
241.581
241.88
242.178
242.473
242.764
243.045
257.188
255.573
254.087
252.736
251.51
250.38
249.329
248.349
247.433
246.577
245.778
245.036
244.349
243.72
243.149
242.638
242.189
241.802
241.48
241.224
241.034
240.914
240.855
240.849
240.89
240.973
241.091
241.241
241.415
241.61
241.822
242.046
242.279
242.519
242.764
243.011
243.259
243.506
243.752
243.994
244.23
257.185
255.693
254.321
253.077
251.953
250.921
249.966
249.08
248.257
247.491
246.782
246.126
245.523
244.974
244.479
244.038
243.653
243.324
243.05
242.833
242.674
242.574
242.523
242.517
242.55
242.618
242.716
242.838
242.982
243.143
243.317
243.502
243.695
243.894
244.097
244.303
244.509
244.716
244.921
245.124
245.322
257.191
255.807
254.536
253.387
252.352
251.406
250.535
249.732
248.989
248.304
247.671
247.091
246.56
246.08
245.65
245.27
244.939
244.658
244.426
244.243
244.109
244.026
243.984
243.979
244.007
244.063
244.144
244.246
244.366
244.499
244.644
244.798
244.959
245.125
245.294
245.466
245.639
245.812
245.984
246.156
246.322
257.204
255.915
254.733
253.667
252.711
251.841
251.044
250.313
249.642
249.025
248.461
247.946
247.478
247.058
246.684
246.355
246.071
245.831
245.634
245.48
245.368
245.3
245.266
245.262
245.286
245.334
245.403
245.489
245.589
245.701
245.822
245.951
246.086
246.225
246.368
246.512
246.657
246.803
246.948
247.093
247.234
257.221
256.016
254.912
253.92
253.033
252.23
251.498
250.831
250.223
249.667
249.162
248.704
248.292
247.923
247.597
247.313
247.069
246.865
246.698
246.569
246.476
246.42
246.393
246.391
246.413
246.454
246.513
246.586
246.67
246.765
246.868
246.977
247.09
247.208
247.328
247.45
247.573
247.696
247.819
247.942
248.061
257.241
256.109
255.074
254.147
253.321
252.577
251.903
251.292
250.739
250.237
249.784
249.377
249.012
248.689
248.406
248.16
247.951
247.776
247.636
247.528
247.451
247.406
247.385
247.386
247.406
247.442
247.493
247.555
247.628
247.708
247.796
247.888
247.985
248.084
248.186
248.29
248.394
248.499
248.603
248.708
248.809
257.263
256.195
255.22
254.35
253.577
252.885
252.262
251.701
251.196
250.743
250.336
249.973
249.65
249.367
249.12
248.908
248.729
248.581
248.463
248.373
248.311
248.275
248.259
248.262
248.281
248.313
248.357
248.411
248.474
248.543
248.618
248.697
248.779
248.864
248.951
249.039
249.127
249.217
249.306
249.395
249.48
257.285
256.273
255.351
254.529
253.804
253.157
252.579
252.062
251.601
251.189
250.823
250.499
250.214
249.966
249.751
249.568
249.416
249.291
249.192
249.119
249.068
249.04
249.03
249.034
249.052
249.082
249.121
249.168
249.222
249.282
249.346
249.414
249.485
249.557
249.632
249.707
249.783
249.859
249.934
250.01
250.083
257.307
256.342
255.465
254.687
254.002
253.396
252.857
252.379
251.955
251.581
251.251
250.962
250.71
250.493
250.307
250.15
250.02
249.916
249.834
249.774
249.734
249.713
249.707
249.713
249.731
249.758
249.793
249.834
249.881
249.933
249.988
250.047
250.107
250.17
250.233
250.298
250.362
250.427
250.492
250.557
250.618
257.327
256.403
255.565
254.823
254.173
253.601
253.097
252.653
252.264
251.923
251.626
251.368
251.145
250.955
250.794
250.66
250.551
250.464
250.398
250.35
250.319
250.305
250.303
250.311
250.329
250.354
250.386
250.423
250.465
250.51
250.558
250.609
250.662
250.715
250.77
250.826
250.881
250.937
250.992
251.048
251.101
257.347
256.455
255.649
254.938
254.319
253.777
253.302
252.889
252.53
252.218
251.95
251.719
251.523
251.357
251.219
251.106
251.014
250.943
250.89
250.853
250.83
250.821
250.823
250.833
250.85
250.874
250.903
250.936
250.973
251.012
251.054
251.098
251.144
251.19
251.237
251.285
251.332
251.38
251.428
251.475
251.52
257.364
256.499
255.719
255.033
254.439
253.922
253.474
253.087
252.754
252.469
252.226
252.021
251.848
251.704
251.586
251.491
251.416
251.359
251.318
251.291
251.276
251.274
251.279
251.292
251.31
251.334
251.361
251.392
251.426
251.462
251.5
251.538
251.578
251.619
251.66
251.702
251.743
251.785
251.826
251.868
251.907
257.378
256.533
255.773
255.107
254.533
254.038
253.612
253.248
252.939
252.678
252.458
252.275
252.123
251.999
251.9
251.821
251.761
251.716
251.685
251.666
251.658
251.659
251.667
251.681
251.699
251.722
251.747
251.776
251.806
251.838
251.871
251.905
251.94
251.975
252.011
252.047
252.083
252.119
252.154
252.19
252.224
257.39
256.557
255.812
255.161
254.602
254.124
253.717
253.373
253.084
252.844
252.645
252.482
252.35
252.245
252.163
252.1
252.053
252.022
252.002
251.993
251.993
252.001
252.015
252.033
252.054
252.078
252.105
252.133
252.163
252.193
252.225
252.256
252.288
252.32
252.352
252.384
252.415
252.447
252.478
252.509
252.539
257.4
256.575
255.839
255.198
254.65
254.185
253.792
253.464
253.193
252.97
252.79
252.645
252.531
252.443
252.376
252.327
252.293
252.271
252.259
252.256
252.26
252.27
252.284
252.302
252.323
252.346
252.37
252.397
252.424
252.452
252.48
252.509
252.537
252.566
252.595
252.623
252.651
252.679
252.707
252.734
252.76
257.405
256.581
255.849
255.214
254.674
254.219
253.838
253.524
253.267
253.06
252.895
252.767
252.668
252.596
252.544
252.511
252.492
252.486
252.489
252.499
252.516
252.538
252.562
252.588
252.616
252.644
252.672
252.701
252.73
252.758
252.786
252.814
252.841
252.868
252.894
252.92
252.945
252.97
252.994
253.018
253.042
257.405
256.568
255.829
255.192
254.654
254.204
253.834
253.532
253.29
253.098
252.95
252.837
252.754
252.695
252.655
252.632
252.62
252.618
252.625
252.637
252.654
252.675
252.699
252.724
252.751
252.779
252.808
252.837
252.865
252.893
252.92
252.947
252.973
252.999
253.023
253.048
253.072
253.095
253.117
253.14
253.161
257.399
256.54
255.786
255.139
254.596
254.146
253.781
253.488
253.257
253.08
252.947
252.853
252.789
252.751
252.734
252.735
252.749
252.774
252.806
252.843
252.883
252.925
252.967
253.007
253.046
253.083
253.118
253.15
253.181
253.211
253.239
253.266
253.292
253.317
253.34
253.363
253.384
253.405
253.425
253.444
253.463
332.932
304.263
288.353
286.922
284.514
280.583
277.453
275.146
273.158
271.372
269.809
268.441
267.224
266.139
265.172
264.303
263.506
262.767
262.067
261.379
260.602
259.922
259.675
259.8
260.048
260.248
260.35
260.395
260.383
260.339
260.267
260.186
260.089
259.994
259.896
259.799
259.708
259.614
259.532
259.447
259.374
259.298
259.224
259.154
259.08
259.008
258.938
258.87
258.802
258.737
258.674
258.618
258.558
258.512
258.465
258.429
258.406
258.378
258.367
258.345
258.339
258.331
258.321
258.309
258.298
258.286
258.267
258.246
258.231
258.21
258.19
258.176
258.137
258.188
330.053
304.065
288.31
286.734
284.328
280.415
277.306
275.01
273.026
271.245
269.688
268.327
267.118
266.038
265.074
264.208
263.415
262.682
261.993
261.299
260.491
259.799
259.584
259.739
259.979
260.147
260.22
260.246
260.23
260.194
260.138
260.077
260.005
259.934
259.858
259.781
259.707
259.627
259.555
259.479
259.41
259.336
259.263
259.19
259.114
259.038
258.963
258.889
258.815
258.743
258.675
258.613
258.548
258.496
258.446
258.406
258.38
258.349
258.336
258.314
258.306
258.298
258.287
258.276
258.264
258.253
258.234
258.214
258.2
258.181
258.161
258.149
258.111
258.165
326.451
303.841
288.273
286.461
284.114
280.23
277.134
274.852
272.875
271.101
269.553
268.199
266.996
265.921
264.961
264.1
263.314
262.588
261.908
261.206
260.377
259.678
259.488
259.666
259.9
260.043
260.092
260.102
260.082
260.053
260.012
259.971
259.92
259.871
259.816
259.759
259.701
259.635
259.573
259.504
259.44
259.369
259.296
259.223
259.144
259.064
258.984
258.905
258.825
258.747
258.673
258.606
258.536
258.479
258.424
258.381
258.352
258.32
258.304
258.281
258.272
258.263
258.253
258.241
258.23
258.218
258.201
258.182
258.168
258.15
258.132
258.121
258.084
258.142
322.009
303.22
288.205
286.09
283.841
280.015
276.93
274.663
272.7
270.937
269.398
268.053
266.857
265.787
264.833
263.979
263.2
262.481
261.807
261.104
260.271
259.573
259.392
259.581
259.813
259.943
259.976
259.974
259.951
259.925
259.894
259.868
259.835
259.804
259.767
259.725
259.681
259.628
259.576
259.514
259.455
259.388
259.317
259.243
259.163
259.081
258.998
258.914
258.83
258.748
258.669
258.597
258.523
258.462
258.405
258.359
258.327
258.294
258.276
258.252
258.242
258.233
258.222
258.21
258.198
258.187
258.17
258.152
258.139
258.122
258.105
258.095
258.059
258.119
316.81
302.032
288.06
285.568
283.445
279.738
276.671
274.426
272.488
270.741
269.215
267.88
266.693
265.632
264.685
263.84
263.07
262.359
261.69
260.993
260.179
259.499
259.316
259.495
259.719
259.84
259.864
259.854
259.827
259.804
259.783
259.768
259.749
259.733
259.711
259.683
259.653
259.61
259.567
259.513
259.459
259.396
259.326
259.253
259.173
259.09
259.004
258.918
258.83
258.744
258.662
258.586
258.509
258.444
258.385
258.337
258.302
258.268
258.248
258.224
258.212
258.203
258.192
258.18
258.169
258.158
258.141
258.124
258.111
258.095
258.079
258.07
258.034
258.097
311.036
300.078
287.673
284.818
282.842
279.345
276.324
274.112
272.214
270.495
268.988
267.669
266.495
265.446
264.51
263.676
262.918
262.217
261.553
260.866
260.093
259.454
259.268
259.421
259.624
259.733
259.752
259.736
259.707
259.687
259.672
259.667
259.661
259.657
259.648
259.633
259.614
259.582
259.548
259.501
259.452
259.393
259.327
259.255
259.175
259.091
259.004
258.916
258.826
258.737
258.651
258.572
258.493
258.425
258.364
258.314
258.277
258.242
258.221
258.197
258.184
258.174
258.164
258.151
258.14
258.129
258.113
258.096
258.083
258.068
258.053
258.045
258.01
258.074
304.823
297.215
286.834
283.756
281.926
278.746
275.832
273.674
271.839
270.169
268.695
267.401
266.249
265.217
264.298
263.478
262.735
262.047
261.392
260.721
259.997
259.415
259.239
259.366
259.538
259.63
259.641
259.62
259.59
259.571
259.562
259.564
259.568
259.575
259.577
259.574
259.565
259.543
259.517
259.477
259.433
259.38
259.317
259.248
259.169
259.086
258.998
258.908
258.816
258.725
258.637
258.556
258.475
258.405
258.342
258.291
258.252
258.217
258.194
258.17
258.156
258.146
258.135
258.123
258.111
258.1
258.085
258.069
258.056
258.042
258.027
258.02
257.986
258.051
298.282
293.411
285.326
282.286
280.599
277.831
275.114
273.047
271.305
269.712
268.294
267.044
265.928
264.926
264.03
263.231
262.508
261.839
261.2
260.551
259.881
259.357
259.196
259.307
259.458
259.534
259.536
259.508
259.475
259.455
259.449
259.457
259.47
259.486
259.497
259.503
259.504
259.491
259.473
259.441
259.403
259.354
259.296
259.23
259.154
259.072
258.985
258.894
258.802
258.709
258.62
258.537
258.455
258.383
258.319
258.267
258.227
258.192
258.168
258.144
258.13
258.119
258.108
258.095
258.084
258.073
258.058
258.042
258.03
258.016
258.002
257.996
257.962
258.029
291.507
288.743
282.971
280.289
278.778
276.486
274.076
272.158
270.546
269.067
267.735
266.554
265.495
264.54
263.681
262.913
262.218
261.576
260.965
260.35
259.738
259.268
259.114
259.209
259.352
259.428
259.429
259.398
259.361
259.338
259.333
259.344
259.363
259.386
259.407
259.421
259.43
259.426
259.415
259.391
259.359
259.316
259.264
259.202
259.13
259.05
258.964
258.874
258.781
258.689
258.598
258.514
258.432
258.36
258.295
258.243
258.202
258.167
258.142
258.118
258.104
258.092
258.082
258.069
258.058
258.046
258.031
258.017
258.004
257.991
257.978
257.972
257.939
258.006
284.587
283.374
279.693
277.648
276.4
274.619
272.622
270.931
269.496
268.173
266.964
265.882
264.907
264.021
263.218
262.496
261.841
261.238
260.665
260.1
259.555
259.141
258.99
259.06
259.191
259.276
259.295
259.275
259.242
259.218
259.212
259.223
259.247
259.276
259.304
259.327
259.343
259.347
259.343
259.326
259.301
259.265
259.218
259.162
259.094
259.018
258.935
258.847
258.755
258.663
258.573
258.488
258.406
258.334
258.27
258.217
258.176
258.142
258.117
258.094
258.078
258.067
258.056
258.044
258.032
258.02
258.006
257.991
257.979
257.967
257.953
257.948
257.917
257.982
277.612
277.504
275.538
274.289
273.425
272.171
270.666
269.292
268.09
266.971
265.929
264.982
264.121
263.331
262.608
261.95
261.352
260.801
260.282
259.781
259.312
258.959
258.817
258.861
258.973
259.062
259.103
259.106
259.092
259.079
259.077
259.091
259.117
259.151
259.187
259.217
259.242
259.254
259.257
259.248
259.229
259.199
259.159
259.109
259.047
258.976
258.897
258.812
258.723
258.632
258.542
258.458
258.377
258.305
258.242
258.19
258.15
258.116
258.092
258.069
258.054
258.042
258.032
258.019
258.007
257.995
257.981
257.967
257.955
257.943
257.93
257.925
257.895
257.958
270.661
271.324
270.663
270.224
269.844
269.128
268.155
267.178
266.274
265.409
264.581
263.809
263.097
262.433
261.817
261.248
260.726
260.244
259.795
259.371
258.987
258.702
258.579
258.606
258.7
258.791
258.85
258.879
258.89
258.896
258.908
258.931
258.965
259.006
259.049
259.089
259.122
259.144
259.155
259.153
259.141
259.118
259.085
259.042
258.987
258.923
258.849
258.768
258.683
258.595
258.507
258.424
258.345
258.274
258.212
258.161
258.122
258.09
258.066
258.045
258.03
258.018
258.008
257.995
257.983
257.97
257.956
257.943
257.931
257.919
257.907
257.901
257.873
257.932
263.813
265.008
265.284
265.557
265.701
265.519
265.083
264.553
264.005
263.442
262.874
262.322
261.794
261.291
260.812
260.36
259.939
259.548
259.187
258.853
258.561
258.349
258.258
258.281
258.366
258.46
258.537
258.593
258.632
258.663
258.694
258.73
258.775
258.826
258.88
258.932
258.977
259.011
259.033
259.041
259.038
259.022
258.996
258.959
258.912
258.855
258.789
258.714
258.634
258.55
258.466
258.385
258.308
258.238
258.178
258.13
258.092
258.062
258.04
258.02
258.006
257.995
257.984
257.972
257.96
257.947
257.933
257.919
257.907
257.896
257.884
257.878
257.852
257.906
257.168
258.719
259.641
260.476
261.109
261.43
261.502
261.431
261.274
261.052
260.783
260.487
260.182
259.872
259.562
259.258
258.966
258.69
258.436
258.206
258.014
257.882
257.835
257.87
257.958
258.062
258.16
258.245
258.316
258.376
258.43
258.485
258.543
258.606
258.672
258.737
258.797
258.846
258.884
258.906
258.914
258.908
258.89
258.862
258.822
258.773
258.714
258.648
258.574
258.497
258.418
258.34
258.266
258.2
258.142
258.095
258.06
258.032
258.012
257.995
257.982
257.971
257.961
257.949
257.937
257.924
257.909
257.896
257.884
257.873
257.861
257.855
257.831
257.879
250.883
252.649
253.991
255.227
256.257
257.011
257.534
257.894
258.128
258.26
258.31
258.299
258.245
258.158
258.047
257.919
257.783
257.648
257.521
257.41
257.325
257.281
257.293
257.36
257.465
257.587
257.711
257.827
257.933
258.028
258.113
258.191
258.268
258.345
258.424
258.502
258.577
258.644
258.699
258.739
258.763
258.771
258.765
258.746
258.715
258.674
258.625
258.567
258.502
258.433
258.36
258.289
258.22
258.157
258.102
258.058
258.025
257.999
257.981
257.967
257.957
257.947
257.938
257.927
257.915
257.901
257.887
257.873
257.861
257.85
257.838
257.832
257.811
257.85
245.179
247.036
248.615
250.096
251.402
252.484
253.367
254.092
254.679
255.147
255.511
255.791
256.001
256.155
256.263
256.334
256.378
256.405
256.424
256.444
256.477
256.531
256.616
256.732
256.872
257.026
257.182
257.334
257.479
257.612
257.732
257.842
257.943
258.039
258.134
258.227
258.318
258.402
258.477
258.537
258.58
258.606
258.615
258.608
258.588
258.557
258.516
258.468
258.414
258.354
258.292
258.228
258.166
258.109
258.058
258.017
257.987
257.964
257.949
257.937
257.929
257.922
257.915
257.904
257.892
257.879
257.865
257.851
257.838
257.827
257.816
257.809
257.791
257.82
240.335
242.167
243.829
245.412
246.861
248.145
249.273
250.264
251.128
251.874
252.514
253.06
253.524
253.916
254.246
254.525
254.76
254.961
255.138
255.301
255.459
255.621
255.792
255.975
256.169
256.367
256.566
256.76
256.947
257.122
257.282
257.428
257.56
257.682
257.797
257.909
258.017
258.121
258.216
258.298
258.364
258.411
258.438
258.447
258.44
258.419
258.389
258.35
258.307
258.258
258.207
258.155
258.103
258.054
258.01
257.973
257.946
257.926
257.913
257.904
257.899
257.894
257.889
257.88
257.869
257.857
257.843
257.829
257.816
257.805
257.793
257.786
257.771
257.789
236.781
238.493
240.109
241.667
243.133
244.486
245.728
246.864
247.896
248.828
249.664
250.411
251.076
251.666
252.189
252.651
253.061
253.426
253.754
254.055
254.337
254.607
254.87
255.13
255.388
255.641
255.89
256.131
256.362
256.579
256.781
256.966
257.133
257.285
257.426
257.559
257.688
257.811
257.927
258.032
258.121
258.191
258.24
258.267
258.274
258.266
258.246
258.218
258.184
258.148
258.109
258.069
258.03
257.991
257.956
257.926
257.903
257.886
257.876
257.869
257.866
257.863
257.86
257.854
257.844
257.833
257.82
257.807
257.794
257.782
257.771
257.762
257.75
257.756
234.558
236.094
237.582
239.033
240.427
241.751
243.001
244.176
245.275
246.296
247.24
248.108
248.904
249.63
250.292
250.894
251.442
251.94
252.396
252.815
253.206
253.574
253.924
254.26
254.583
254.895
255.195
255.483
255.757
256.017
256.258
256.481
256.683
256.868
257.037
257.196
257.346
257.49
257.627
257.754
257.866
257.958
258.028
258.075
258.099
258.104
258.095
258.077
258.053
258.028
258.001
257.975
257.948
257.922
257.898
257.877
257.859
257.846
257.838
257.833
257.83
257.83
257.828
257.824
257.817
257.808
257.796
257.784
257.772
257.76
257.749
257.739
257.73
257.722
233.436
234.771
236.089
237.388
238.657
239.887
241.074
242.213
243.301
244.334
245.31
246.229
247.09
247.893
248.64
249.334
249.977
250.572
251.124
251.638
252.117
252.568
252.993
253.397
253.782
254.148
254.498
254.831
255.147
255.446
255.725
255.984
256.221
256.438
256.638
256.823
256.997
257.163
257.32
257.468
257.6
257.714
257.805
257.872
257.913
257.933
257.937
257.929
257.916
257.901
257.886
257.873
257.86
257.848
257.836
257.824
257.814
257.805
257.799
257.795
257.794
257.794
257.794
257.792
257.787
257.78
257.771
257.76
257.749
257.737
257.727
257.716
257.709
257.689
233.163
234.293
235.426
236.555
237.672
238.773
239.853
240.908
241.932
242.923
243.876
244.789
245.661
246.489
247.273
248.014
248.711
249.367
249.983
250.562
251.107
251.621
252.107
252.567
253.004
253.418
253.812
254.187
254.541
254.875
255.189
255.482
255.752
256.002
256.231
256.444
256.643
256.83
257.008
257.175
257.327
257.461
257.572
257.658
257.717
257.753
257.771
257.775
257.773
257.769
257.766
257.765
257.766
257.768
257.768
257.768
257.766
257.763
257.76
257.757
257.756
257.756
257.757
257.756
257.754
257.749
257.742
257.734
257.725
257.714
257.704
257.692
257.686
257.656
233.52
234.458
235.408
236.365
237.324
238.282
239.234
240.177
241.106
242.019
242.91
243.778
244.619
245.431
246.212
246.96
247.675
248.357
249.006
249.622
250.207
250.763
251.291
251.792
252.269
252.722
253.153
253.562
253.95
254.316
254.661
254.984
255.285
255.564
255.822
256.061
256.284
256.494
256.692
256.877
257.047
257.199
257.329
257.434
257.512
257.565
257.597
257.615
257.625
257.632
257.64
257.652
257.667
257.682
257.696
257.707
257.714
257.718
257.719
257.718
257.718
257.718
257.718
257.718
257.717
257.716
257.711
257.706
257.699
257.69
257.681
257.669
257.663
257.624
234.318
235.084
235.866
236.662
237.468
238.283
239.102
239.923
240.742
241.557
242.364
243.16
243.943
244.708
245.455
246.18
246.882
247.56
248.213
248.84
249.442
250.018
250.569
251.095
251.599
252.079
252.536
252.972
253.386
253.779
254.15
254.499
254.826
255.131
255.414
255.679
255.925
256.156
256.373
256.575
256.762
256.931
257.078
257.201
257.297
257.368
257.417
257.449
257.472
257.491
257.512
257.535
257.562
257.59
257.617
257.641
257.658
257.67
257.676
257.678
257.678
257.678
257.678
257.679
257.679
257.679
257.678
257.675
257.671
257.664
257.657
257.645
257.639
257.594
235.409
236.026
236.66
237.312
237.979