/*--------------------------------*- C++ -*----------------------------------*\
| =========                 |                                                 |
| \\      /  F ield         | OpenFOAM: The Open Source CFD Toolbox           |
|  \\    /   O peration     | Version:  5.x                                   |
|   \\  /    A nd           | Web:      www.OpenFOAM.org                      |
|    \\/     M anipulation  |                                                 |
\*---------------------------------------------------------------------------*/
FoamFile
{
    version     2.0;
    format      ascii;
    class       surfaceScalarField;
    location    "100";
    object      phi;
}
// * * * * * * * * * * * * * * * * * * * * * * * * * * * * * * * * * * * * * //

dimensions      [0 3 -1 0 0 0 0];

internalField   nonuniform List<scalar> 
21876
(
0.0424394
-0.0102223
-0.0321773
0.0434604
-0.00101552
0.039276
0.00418939
0.0345035
0.00477586
0.0312307
0.00327414
0.02973
0.0015015
0.0289836
0.000746548
0.0279069
0.00107691
0.0269672
0.000939778
0.0261708
0.000796333
0.025484
0.000686974
0.024884
0.000600006
0.0243531
0.000531036
0.0238944
0.000458286
0.0234925
0.000402243
0.0230233
0.000469042
0.0223778
0.00064594
0.0217205
0.000657233
0.0210806
0.000640493
0.0204628
0.000617756
0.019863
0.000600316
0.0193194
0.000544017
0.0187929
0.000526591
0.0182589
0.000534333
0.0177385
0.000520467
0.0173168
0.00042194
0.0169632
0.000353631
0.0166317
0.000331728
0.0163083
0.000323447
0.0159823
0.000326155
0.0156461
0.000336174
0.0152937
0.000352612
0.0149175
0.00037621
0.0145064
0.000411249
0.0140518
0.000454603
0.013541
0.000510808
0.012956
0.000585002
0.0122574
0.00069864
0.0114436
0.00081393
0.01017
0.00127416
0.00125759
0.00891305
0.0426619
-0.0199494
-0.0329329
0.0463764
-0.00472546
0.0477096
0.00286035
0.0475829
0.00490528
0.0463997
0.00445871
0.0448052
0.00309687
0.0431291
0.00242328
0.0412694
0.00293716
0.0396006
0.00260913
0.0381367
0.00226064
0.0368264
0.00199765
0.0356573
0.0017695
0.0346207
0.0015681
0.0337107
0.00136864
0.0329215
0.00119195
0.0321781
0.00121261
0.0313581
0.00146638
0.0305218
0.00149374
0.0296783
0.00148458
0.0288378
0.00145836
0.0280081
0.00143057
0.0272576
0.00129505
0.0265531
0.00123128
0.0258665
0.00122125
0.0251918
0.00119534
0.0245916
0.00102244
0.0240646
0.000880716
0.0235845
0.000812068
0.0231357
0.000772319
0.022703
0.000759047
0.0222737
0.000765567
0.0218375
0.000788909
0.0213847
0.000829031
0.0209018
0.000894346
0.0203798
0.000976581
0.0198039
0.00108673
0.019164
0.00122493
0.0183923
0.00147029
0.0175645
0.0016418
0.0163171
0.00252183
0.00438434
0.0131907
0.0471161
-0.031339
-0.0357282
0.0543688
-0.0119772
0.057557
-0.000325498
0.0585044
0.00395967
0.0581879
0.00477641
0.0571861
0.00409917
0.0557903
0.00381932
0.0539835
0.00474412
0.0521098
0.00448297
0.0503351
0.00403532
0.0486815
0.00365135
0.0471647
0.00328634
0.0457935
0.00293935
0.0445693
0.00259266
0.0434799
0.00228152
0.0424445
0.00224806
0.0413539
0.00255714
0.0402723
0.00257527
0.0392103
0.00254692
0.0381656
0.00250309
0.0371363
0.00246002
0.0362022
0.00222937
0.035323
0.00211049
0.0344724
0.00207202
0.0336509
0.00201686
0.0329183
0.00175508
0.0322672
0.00153183
0.0316664
0.00141299
0.0310994
0.00133927
0.0305515
0.00130702
0.0300093
0.00130776
0.0294612
0.00133696
0.0288957
0.00139458
0.0282961
0.00149395
0.0276525
0.00162017
0.026948
0.00179127
0.02617
0.00200293
0.0252501
0.00239026
0.0242222
0.00266979
0.0228553
0.00388896
0.00761307
0.0196267
0.0512889
-0.0433754
-0.0392547
0.0606942
-0.0213817
0.0660831
-0.00571276
0.0684947
0.00154958
0.0692001
0.00407196
0.0689788
0.00432116
0.0682064
0.00459218
0.0668915
0.0060594
0.0652592
0.00611553
0.0635567
0.0057382
0.0618728
0.00533565
0.0602451
0.00491436
0.0587035
0.00448146
0.0572719
0.00402464
0.0559561
0.00359783
0.0546889
0.00351556
0.0533618
0.00388466
0.0520333
0.00390414
0.050734
0.00384661
0.0494639
0.00377349
0.0482176
0.00370675
0.0470882
0.00335921
0.0460266
0.00317237
0.0450039
0.00309498
0.0440201
0.00300086
0.0431354
0.00263995
0.042345
0.00232242
0.0416131
0.00214498
0.0409196
0.00203293
0.0402482
0.00197847
0.0395846
0.00197142
0.0389159
0.00200572
0.0382288
0.00208169
0.0375042
0.00221863
0.0367308
0.0023936
0.0358903
0.00263173
0.0349661
0.00292715
0.0338913
0.00346505
0.0326649
0.00389619
0.0311361
0.00541786
0.0107819
0.0279674
0.0559572
-0.0561217
-0.0432114
0.0671716
-0.0325958
0.0752089
-0.013749
0.0799341
-0.00317442
0.0821969
0.00181001
0.0828744
0.0036443
0.0825929
0.00487398
0.0816016
0.00705102
0.0801324
0.00758489
0.0784708
0.00739997
0.0767711
0.00703558
0.0750971
0.00658855
0.0734825
0.00609616
0.0719521
0.0055552
0.0705135
0.00503655
0.0691123
0.00491682
0.0676408
0.00535636
0.0661392
0.0054058
0.0646529
0.00533308
0.0631895
0.00523703
0.0617468
0.00514957
0.0604352
0.00467092
0.0592016
0.00440608
0.0580163
0.00428038
0.0568766
0.00414052
0.0558413
0.00367538
0.0549101
0.00325365
0.0540459
0.00300916
0.053225
0.00285383
0.0524296
0.00277393
0.0516432
0.00275773
0.0508516
0.0027974
0.0500397
0.00289355
0.0491859
0.0030724
0.0482782
0.00330132
0.0472979
0.00361209
0.0462242
0.00400087
0.0449942
0.00469504
0.0435825
0.00530793
0.0419274
0.0070731
0.0138795
0.0388298
0.0613205
-0.0698597
-0.047585
0.0741094
-0.0453848
0.0845889
-0.024228
0.0920097
-0.0105946
0.0964976
-0.00267757
0.0987173
0.00142507
0.0993836
0.00420793
0.0989574
0.00747746
0.0977579
0.00878456
0.0961363
0.0090218
0.0943526
0.00881954
0.0925492
0.00839214
0.0907943
0.00785136
0.0891255
0.0072243
0.0875567
0.0066057
0.0860457
0.0064282
0.0844842
0.00691819
0.0828777
0.00701271
0.0812702
0.00694088
0.0796751
0.00683253
0.0780921
0.00673303
0.0766439
0.00611939
0.0752775
0.0057728
0.0739652
0.00559291
0.0727021
0.0054038
0.0715421
0.00483556
0.070491
0.00430491
0.0695132
0.00398706
0.0685824
0.00378475
0.0676792
0.00367723
0.0667856
0.00365136
0.0658854
0.00369766
0.0649621
0.00381681
0.0639918
0.00404276
0.062962
0.00433118
0.0618544
0.00471966
0.0606458
0.00520944
0.0592796
0.00606132
0.057719
0.00686855
0.0559934
0.00879868
0.0168528
0.0530201
0.0676055
-0.0850259
-0.0524396
0.081952
-0.0597315
0.0945302
-0.0368061
0.104552
-0.0206161
0.111662
-0.0097876
0.116079
-0.00299223
0.118369
0.00191806
0.11906
0.00678751
0.118536
0.00930822
0.117215
0.0103433
0.115463
0.0105714
0.113539
0.0103163
0.111591
0.00980016
0.109702
0.00911334
0.107915
0.008393
0.106215
0.00812883
0.104511
0.008622
0.102782
0.0087423
0.101059
0.00866324
0.0993579
0.00853421
0.097673
0.00841812
0.0961305
0.00766201
0.0946758
0.00722755
0.0932831
0.00698568
0.0919441
0.0067429
0.0907039
0.00607591
0.089573
0.00543578
0.0885201
0.00504006
0.0875167
0.00478813
0.0865422
0.00465174
0.0855775
0.00461615
0.0846047
0.0046705
0.0836061
0.0048154
0.0825557
0.00509319
0.0814413
0.00544558
0.0802463
0.00591461
0.0789475
0.00650832
0.0774971
0.00751168
0.0758618
0.00850387
0.0741477
0.0105128
0.0196047
0.0713958
0.0749736
-0.102149
-0.0578528
0.0911131
-0.0758714
0.105655
-0.0513485
0.118037
-0.0329985
0.127787
-0.0195379
0.134767
-0.00997172
0.139246
-0.00256066
0.141671
0.0043623
0.142406
0.00857371
0.141877
0.0108722
0.140516
0.011933
0.138689
0.0121433
0.136651
0.0118376
0.134566
0.0111986
0.13253
0.01043
0.130573
0.0100858
0.128647
0.0105479
0.126723
0.0106669
0.124824
0.0105623
0.122971
0.010388
0.12116
0.0102292
0.119518
0.00930414
0.117984
0.00876164
0.116531
0.00843916
0.115145
0.00812903
0.113858
0.00736257
0.112683
0.00661082
0.111593
0.00613011
0.110559
0.00582271
0.109557
0.00565344
0.108568
0.00560525
0.107572
0.00566609
0.106552
0.0058363
0.105478
0.00616682
0.104341
0.00658282
0.103126
0.00712904
0.101815
0.00781991
0.10037
0.0089561
0.0987757
0.0100985
0.0971879
0.0121006
0.0220102
0.0947824
0.083602
-0.121834
-0.0639166
0.101963
-0.0942334
0.118597
-0.0679822
0.133203
-0.047605
0.145431
-0.0317659
0.155024
-0.0195657
0.162014
-0.00955019
0.166656
-0.000279606
0.169223
0.00600561
0.170076
0.0100196
0.169635
0.0123742
0.168322
0.0134562
0.166489
0.013671
0.164392
0.0132957
0.162205
0.0126172
0.160026
0.0122647
0.157867
0.0127069
0.155714
0.01282
0.15359
0.0126868
0.151525
0.0124534
0.149528
0.0122263
0.147737
0.0110954
0.146087
0.010412
0.144549
0.00997755
0.143104
0.00957385
0.14177
0.00869669
0.140556
0.00782475
0.139441
0.00724562
0.138394
0.00686942
0.137391
0.00665609
0.136411
0.00658545
0.135433
0.00664397
0.134438
0.00683134
0.133398
0.0072069
0.132305
0.00767626
0.131149
0.00828474
0.129918
0.00905066
0.12859
0.0102843
0.127171
0.0115177
0.125838
0.0134334
0.0239381
0.12391
0.0936968
-0.144787
-0.0707443
0.11486
-0.115397
0.133951
-0.0870728
0.15087
-0.0645247
0.16547
-0.0463663
0.177571
-0.0316666
0.187121
-0.0191004
0.194232
-0.00739072
0.19904
0.00119677
0.201805
0.007255
0.20286
0.0113186
0.202605
0.0137112
0.201432
0.0148447
0.199673
0.015054
0.197587
0.0147035
0.195352
0.0144996
0.193058
0.0150012
0.190733
0.0151458
0.188409
0.01501
0.186131
0.0147317
0.183925
0.0144328
0.181948
0.0130728
0.180139
0.0122209
0.178474
0.0116425
0.176934
0.0111137
0.175525
0.0101063
0.17425
0.00909991
0.173091
0.00840401
0.172022
0.00793922
0.171014
0.00766313
0.170048
0.00755225
0.169101
0.00759075
0.168155
0.00777738
0.167183
0.00817929
0.16618
0.00867913
0.165144
0.00932057
0.164072
0.0101223
0.162955
0.0114021
0.161822
0.0126499
0.160844
0.0144122
0.0252929
0.159489
0.105515
-0.171836
-0.0784657
0.130199
-0.140081
0.152306
-0.109181
0.171874
-0.0840923
0.18894
-0.0634326
0.203485
-0.0462117
0.215517
-0.0311323
0.225122
-0.016996
0.232347
-0.00602826
0.237354
0.00224804
0.240378
0.00829458
0.241723
0.0123657
0.241749
0.0148188
0.240811
0.0159924
0.239223
0.0162918
0.237239
0.016483
0.235034
0.017206
0.232698
0.0174827
0.230295
0.0174125
0.227889
0.0171377
0.225529
0.0167934
0.22339
0.0152114
0.221428
0.0141836
0.219626
0.0134441
0.217973
0.0127676
0.216466
0.0116126
0.215109
0.0104574
0.213887
0.00962635
0.212775
0.00905054
0.211749
0.00868891
0.210787
0.00851464
0.209869
0.00850922
0.208977
0.00866941
0.208086
0.00907012
0.207198
0.00956677
0.206318
0.0102004
0.205454
0.0109865
0.204603
0.0122533
0.203817
0.0134353
0.203234
0.0149952
0.0260525
0.202475
0.119376
-0.203966
-0.0872445
0.148449
-0.169154
0.174305
-0.135037
0.197072
-0.106859
0.216934
-0.0832942
0.23404
-0.0633176
0.248531
-0.0456226
0.260562
-0.0290272
0.270199
-0.015665
0.277555
-0.00510839
0.282799
0.00305138
0.28614
0.00902434
0.287852
0.0131065
0.288249
0.0155952
0.287649
0.0168918
0.286348
0.017784
0.284587
0.0189672
0.28252
0.0195491
0.280263
0.0196696
0.27791
0.0194908
0.275539
0.0191651
0.273339
0.0174109
0.271295
0.0162283
0.269407
0.0153326
0.267671
0.0145035
0.266088
0.0131954
0.26466
0.0118853
0.26338
0.010907
0.262229
0.0102014
0.261187
0.00973084
0.260234
0.00946743
0.259353
0.00938975
0.25853
0.00949265
0.257742
0.00985842
0.256997
0.010312
0.256306
0.0108914
0.255685
0.011607
0.255134
0.0128042
0.254719
0.0138509
0.254535
0.0151786
0.0262547
0.254333
0.135677
-0.242362
-0.097281
0.170187
-0.203664
0.200697
-0.165546
0.227405
-0.133566
0.250612
-0.106502
0.270619
-0.0833246
0.287717
-0.0627194
0.302183
-0.0434931
0.314176
-0.0276575
0.32385
-0.0147828
0.33136
-0.00445827
0.336869
0.0035152
0.340578
0.00939841
0.342725
0.0134482
0.343584
0.0160329
0.343443
0.0179248
0.342571
0.0198392
0.341166
0.0209537
0.33939
0.0214457
0.337376
0.0215054
0.335235
0.021306
0.333158
0.0194878
0.331175
0.018211
0.329314
0.0171937
0.327588
0.0162298
0.326004
0.0147796
0.324569
0.0133206
0.323282
0.0121932
0.322137
0.0113472
0.321118
0.0107496
0.320213
0.0103728
0.319409
0.0101935
0.318697
0.0102049
0.318057
0.0104977
0.317505
0.0108641
0.317056
0.0113409
0.316729
0.0119339
0.31652
0.0130133
0.316497
0.0138735
0.316722
0.0149534
0.025939
0.317038
0.15491
-0.288449
-0.108824
0.196122
-0.244875
0.232386
-0.201809
0.263968
-0.165148
0.291274
-0.133808
0.314742
-0.106792
0.334807
-0.0827841
0.351889
-0.060575
0.366278
-0.0420465
0.37823
-0.0267345
0.387958
-0.0141856
0.395635
-0.00416128
0.401438
0.00359592
0.405556
0.00932998
0.408205
0.0133845
0.409631
0.0164988
0.410089
0.0193808
0.409787
0.0212562
0.408908
0.022325
0.407613
0.0227997
0.406046
0.0228732
0.404369
0.0211651
0.402676
0.0199043
0.40103
0.0188392
0.399471
0.0177889
0.398021
0.0162301
0.396697
0.0146441
0.395512
0.0133784
0.394468
0.0123916
0.393561
0.0116564
0.392787
0.0111474
0.39214
0.0108405
0.391617
0.0107279
0.391204
0.0109105
0.390921
0.0111473
0.390785
0.0114762
0.390818
0.0119011
0.391008
0.0128236
0.391418
0.0134629
0.392084
0.0142876
0.0251076
0.392915
0.177687
-0.343954
-0.122182
0.227131
-0.294318
0.270484
-0.245163
0.308085
-0.202748
0.340447
-0.16617
0.36814
-0.134484
0.391746
-0.10639
0.411829
-0.0806585
0.42883
-0.0590465
0.443133
-0.0410369
0.455058
-0.0261106
0.46485
-0.0139535
0.472716
-0.00426969
0.478845
0.00320149
0.483424
0.00880546
0.486661
0.0132622
0.488779
0.0172631
0.489966
0.0200697
0.4904
0.0218907
0.49025
0.0229501
0.489671
0.0234516
0.488754
0.0220823
0.487664
0.0209944
0.486506
0.0199975
0.48535
0.0189451
0.48424
0.0173401
0.483213
0.0156713
0.482296
0.0142949
0.481507
0.0131805
0.480855
0.0123083
0.480346
0.0116568
0.479983
0.0112033
0.47977
0.0109406
0.479699
0.0109821
0.479792
0.0110545
0.480068
0.0112002
0.480546
0.0114232
0.481207
0.0121625
0.482108
0.0125612
0.483266
0.01313
0.023727
0.484647
0.204758
-0.410978
-0.137734
0.264293
-0.353853
0.316359
-0.297228
0.361376
-0.247765
0.399977
-0.20477
0.432873
-0.16738
0.460802
-0.134318
0.48448
-0.104337
0.504504
-0.0790702
0.521405
-0.0579377
0.535635
-0.0403404
0.547551
-0.0258685
0.557437
-0.0141559
0.56553
-0.00489135
0.572036
0.00229949
0.577158
0.008141
0.581098
0.0133234
0.584023
0.0171449
0.586093
0.0198202
0.587465
0.0215785
0.588289
0.0226278
0.588528
0.0218429
0.588414
0.0211092
0.588085
0.0203264
0.587643
0.0193866
0.587158
0.0178259
0.586686
0.0161428
0.586277
0.0147042
0.585964
0.0134933
0.585772
0.0125
0.58572
0.0117095
0.585821
0.0111025
0.586086
0.0106753
0.586512
0.010556
0.587125
0.0104418
0.587943
0.0103821
0.588982
0.0103842
0.590217
0.0109273
0.591698
0.01108
0.593429
0.0113991
0.0217275
0.595429
0.237029
-0.492077
-0.15593
0.308922
-0.425746
0.371679
-0.359985
0.425818
-0.301904
0.472109
-0.251061
0.511428
-0.206699
0.544682
-0.167572
0.572759
-0.132414
0.596424
-0.102735
0.616367
-0.0778805
0.633187
-0.0571596
0.647372
-0.0400536
0.659323
-0.0261064
0.669361
-0.0149291
0.677751
-0.00609041
0.684729
0.00116286
0.690514
0.00753807
0.695272
0.012387
0.699154
0.0159385
0.702302
0.0184306
0.704855
0.0200754
0.706603
0.0200944
0.707828
0.0198844
0.708691
0.0194639
0.709315
0.0187619
0.709791
0.0173505
0.710196
0.0157379
0.710598
0.0143026
0.711048
0.0130432
0.711586
0.0119616
0.712244
0.0110519
0.713045
0.0103009
0.71401
0.00971092
0.715139
0.00942672
0.716461
0.00912003
0.717993
0.00884943
0.71975
0.00862754
0.721703
0.00897443
0.723896
0.00888751
0.726325
0.00897014
0.0189937
0.729058
0.250097
-0.581115
-0.161059
0.328917
-0.504567
0.397634
-0.428702
0.456823
-0.361092
0.507332
-0.30157
0.550128
-0.249495
0.586215
-0.203659
0.616576
-0.162775
0.642074
-0.128233
0.663492
-0.0992988
0.68152
-0.0751868
0.696733
-0.0552672
0.709614
-0.0389867
0.720554
-0.0258693
0.729874
-0.0154109
0.737848
-0.00681087
0.744716
0.000670814
0.750656
0.00644636
0.755821
0.0107742
0.760342
0.0139095
0.764342
0.0160751
0.767463
0.0169736
0.769992
0.0173559
0.772082
0.0173735
0.773859
0.0169855
0.775412
0.0157968
0.776828
0.0143229
0.778179
0.0129517
0.779525
0.0116971
0.780914
0.0105728
0.782383
0.00958251
0.783963
0.00872054
0.785678
0.00799641
0.787534
0.00757084
0.789557
0.00709668
0.791765
0.00664172
0.794168
0.00622438
0.796742
0.00640086
0.79952
0.00610881
0.802499
0.00599171
0.0157108
0.805782
0.26024
-0.676949
-0.164406
0.344995
-0.589322
0.418821
-0.502529
0.482344
-0.424614
0.536477
-0.355703
0.582265
-0.295283
0.62079
-0.242184
0.653111
-0.195097
0.680172
-0.155293
0.702829
-0.121956
0.72184
-0.0941981
0.737852
-0.0712789
0.751409
-0.052544
0.762965
-0.0374249
0.772892
-0.025338
0.781505
-0.0154238
0.789071
-0.00689615
0.795795
-0.000277522
0.801842
0.00472701
0.807351
0.00840082
0.812442
0.0109847
0.816646
0.0127693
0.820248
0.0137542
0.823386
0.0142347
0.826178
0.0141941
0.828709
0.0132657
0.831061
0.0119705
0.833309
0.0107039
0.835514
0.00949289
0.837724
0.00836286
0.839979
0.00732681
0.842313
0.00638675
0.84475
0.0055596
0.8473
0.00502042
0.849988
0.00440898
0.852828
0.00380139
0.855831
0.00322165
0.858976
0.00325593
0.862291
0.00279431
0.86577
0.00251279
0.0119385
0.869542
0.272385
-0.780203
-0.169131
0.363641
-0.680577
0.443084
-0.581972
0.511391
-0.492922
0.569549
-0.413861
0.618682
-0.344417
0.659958
-0.28346
0.694516
-0.229654
0.723378
-0.184156
0.747476
-0.146054
0.767634
-0.114357
0.784564
-0.088209
0.798871
-0.0668509
0.811063
-0.0496168
0.821563
-0.0358383
0.830729
-0.0245897
0.838864
-0.0150315
0.846201
-0.0076139
0.852927
-0.00199958
0.859199
0.00212866
0.865147
0.00503694
0.870224
0.00769227
0.874711
0.00926727
0.878736
0.0102101
0.882405
0.0105252
0.885799
0.00987169
0.888995
0.00877449
0.892064
0.00763477
0.895065
0.00649181
0.898047
0.00538123
0.901048
0.00432503
0.904103
0.00333276
0.907234
0.00242851
0.910455
0.00179959
0.913786
0.00107743
0.917242
0.000345268
0.920832
-0.000367849
0.92454
-0.000451821
0.928387
-0.00105286
0.932369
-0.00146964
0.00767532
0.936632
0.2864
-0.891538
-0.175064
0.384754
-0.778931
0.470343
-0.667561
0.5439
-0.56648
0.60649
-0.476451
0.659325
-0.397251
0.70366
-0.327795
0.740723
-0.266718
0.771621
-0.215054
0.797359
-0.171792
0.818832
-0.13583
0.836815
-0.106192
0.851972
-0.0820078
0.864864
-0.0625093
0.875964
-0.0469378
0.88567
-0.0342961
0.894323
-0.0236848
0.902188
-0.0154786
0.909479
-0.00929083
0.916374
-0.00476618
0.923018
-0.0016079
0.928811
0.00189994
0.934033
0.0040449
0.938805
0.00543828
0.943226
0.00610428
0.947371
0.00572625
0.951313
0.00483255
0.955119
0.00382941
0.958843
0.00276718
0.962534
0.00169116
0.966227
0.000631692
0.969954
-0.000394391
0.973739
-0.00135631
0.977595
-0.00205659
0.981541
-0.0028683
0.985588
-0.00370223
0.989746
-0.004525
0.994002
-0.00470823
0.998373
-0.0054242
1.00286
-0.0059528
0.0029232
1.00761
0.302238
-1.01167
-0.182107
0.408327
-0.88502
0.500624
-0.759858
0.579924
-0.64578
0.647373
-0.5439
0.704278
-0.454156
0.751992
-0.375509
0.791836
-0.306561
0.825004
-0.248222
0.852584
-0.199372
0.875542
-0.158789
0.89472
-0.12537
0.910839
-0.0981276
0.924517
-0.0761864
0.93627
-0.0586915
0.946542
-0.0445683
0.95571
-0.032852
0.964069
-0.0238383
0.971866
-0.0170872
0.979299
-0.0121999
0.986537
-0.00884514
0.992933
-0.00449618
0.998776
-0.00179863
1.00418
3.16949e-05
1.00925
0.0010388
1.01404
0.000930212
1.01864
0.000237963
1.0231
-0.000627023
1.02747
-0.00160375
1.0318
-0.00263781
1.03612
-0.00369081
1.04046
-0.00473909
1.04485
-0.00574549
1.0493
-0.00650442
1.05382
-0.00739013
1.05843
-0.00830866
1.06313
-0.00922282
1.06791
-0.00949123
1.07279
-0.010303
1.07776
-0.0109252
-0.00230837
1.08299
0.319905
-1.14136
-0.190209
0.434416
-0.999532
0.534026
-0.859468
0.619594
-0.731348
0.692357
-0.616662
0.753723
-0.515523
0.805151
-0.426937
0.848062
-0.349472
0.883746
-0.283906
0.913375
-0.229001
0.937994
-0.183407
0.958512
-0.145888
0.975714
-0.11533
0.99027
-0.0907426
1.00275
-0.0711692
1.01363
-0.055452
1.02333
-0.0425554
1.03219
-0.0326919
1.04047
-0.0253643
1.04839
-0.0201267
1.05616
-0.0166091
1.06308
-0.0114201
1.06946
-0.00818036
1.07542
-0.00592329
1.08104
-0.00458413
1.0864
-0.00443066
1.09157
-0.00492649
1.09659
-0.00565572
1.10154
-0.00654685
1.10644
-0.00753648
1.11132
-0.00857847
1.11623
-0.00964238
1.12117
-0.0106852
1.12616
-0.0114948
1.13121
-0.0124441
1.13634
-0.0134351
1.14154
-0.0144275
1.14682
-0.0147714
1.15219
-0.0156647
1.15763
-0.0163669
-0.00800198
1.16332
0.339448
-1.28146
-0.199351
0.463127
-1.12321
0.570703
-0.967044
0.663107
-0.823752
0.741672
-0.695228
0.807919
-0.58177
0.863418
-0.482436
0.9097
-0.395754
0.948157
-0.322363
0.980053
-0.260898
1.00651
-0.209869
1.02853
-0.167899
1.04694
-0.133741
1.06247
-0.106279
1.07575
-0.0844494
1.08731
-0.0670041
1.09758
-0.0528315
1.10695
-0.042056
1.1157
-0.0341192
1.1241
-0.0285243
1.13235
-0.0248593
1.13975
-0.0188199
1.14661
-0.0150396
1.15304
-0.0123601
1.15915
-0.0106943
1.16501
-0.0102844
1.17067
-0.0105886
1.1762
-0.0111856
1.18165
-0.0119931
1.18705
-0.0129386
1.19244
-0.0139683
1.19784
-0.015045
1.20328
-0.0161201
1.20876
-0.0169762
1.2143
-0.0179826
1.2199
-0.0190382
1.22557
-0.0200998
1.23131
-0.0205132
1.23713
-0.021478
1.24301
-0.0222504
-0.014133
1.24914
0.360946
-1.43287
-0.209534
0.494602
-1.25687
0.610854
-1.0833
0.710709
-0.923608
0.795608
-0.780126
0.867188
-0.65335
0.927143
-0.542391
0.977122
-0.445733
1.01863
-0.363868
1.05302
-0.295292
1.08152
-0.238368
1.10519
-0.191565
1.12494
-0.153492
1.14156
-0.122903
1.15573
-0.0986166
1.16801
-0.0792886
1.17891
-0.0637249
1.18881
-0.051957
1.19805
-0.0433607
1.20691
-0.0373844
1.21562
-0.0335709
1.22346
-0.0266592
1.23075
-0.0223305
1.23762
-0.0192257
1.24416
-0.0172337
1.25044
-0.0165696
1.25654
-0.0166852
1.26251
-0.0171527
1.26839
-0.0178788
1.27423
-0.0187817
1.28007
-0.0197995
1.28591
-0.0208885
1.29178
-0.0219942
1.2977
-0.0228954
1.30368
-0.0239556
1.30971
-0.0250711
1.31581
-0.0261963
1.32197
-0.0266761
1.3282
-0.0277056
1.33449
-0.0285419
-0.0206706
1.34103
0.384502
-1.5966
-0.22078
0.529019
-1.40138
0.65472
-1.209
0.762698
-1.03159
0.854506
-0.871934
0.931911
-0.730755
0.99674
-0.607219
1.05077
-0.499762
1.09562
-0.408717
1.13276
-0.332433
1.1635
-0.26911
1.18899
-0.217055
1.21022
-0.174724
1.22805
-0.140728
1.24319
-0.113761
1.25628
-0.0923739
1.26784
-0.0752852
1.27831
-0.0624268
1.28805
-0.053104
1.29737
-0.0467064
1.30653
-0.0427278
1.31478
-0.034911
1.32247
-0.0300166
1.32972
-0.0264764
1.33664
-0.0241528
1.3433
-0.0232323
1.34978
-0.0231589
1.35612
-0.0234979
1.36239
-0.024144
1.36861
-0.0250058
1.37482
-0.0260129
1.38105
-0.0271146
1.38731
-0.028251
1.39361
-0.0291974
1.39996
-0.0303102
1.40638
-0.0314835
1.41285
-0.0326693
1.41939
-0.0332146
1.42599
-0.0343049
1.43265
-0.0352011
-0.0275774
1.43955
0.410242
-1.77372
-0.233121
0.566585
-1.55773
0.702582
-1.34499
0.819415
-1.14842
0.918762
-0.971281
1.00253
-0.814524
1.07269
-0.677377
1.13115
-0.558225
1.17967
-0.457233
1.21982
-0.372589
1.25303
-0.302319
1.28053
-0.244555
1.30339
-0.197587
1.32254
-0.159875
1.33876
-0.129976
1.35272
-0.106333
1.365
-0.087565
1.37607
-0.0734999
1.38633
-0.0633667
1.39612
-0.056492
1.40571
-0.0523167
1.41435
-0.0435518
1.4224
-0.0380654
1.42999
-0.0340719
1.43724
-0.0314053
1.44423
-0.0302214
1.45103
-0.0299553
1.4577
-0.0301642
1.46428
-0.0307301
1.47083
-0.0315511
1.47736
-0.0325484
1.48391
-0.0336638
1.49049
-0.0348317
1.49712
-0.0358247
1.5038
-0.0369905
1.51054
-0.038221
1.51734
-0.0394664
1.5242
-0.040078
1.53112
-0.0412271
1.5381
-0.0421815
-0.0348096
1.54533
0.438315
-1.96543
-0.246603
0.607543
-1.72695
0.754761
-1.49221
0.881251
-1.27491
0.988826
-1.07886
1.07954
-0.905241
1.15553
-0.753361
1.21884
-0.621541
1.27138
-0.509768
1.31484
-0.416052
1.35076
-0.338237
1.38047
-0.274263
1.40512
-0.222242
1.42572
-0.180472
1.44311
-0.147365
1.45802
-0.121241
1.47107
-0.100619
1.48278
-0.0852116
1.49358
-0.0741668
1.50383
-0.0667428
1.51384
-0.0623237
1.52285
-0.052558
1.53123
-0.0464442
1.53913
-0.0419721
1.54667
-0.038945
1.55393
-0.0374855
1.56099
-0.0370188
1.56792
-0.0370928
1.57477
-0.0375762
1.58157
-0.0383557
1.58837
-0.0393433
1.59518
-0.0404731
1.60202
-0.0416736
1.60891
-0.042715
1.61586
-0.0439349
1.62286
-0.0452234
1.62992
-0.0465285
1.63705
-0.0472086
1.64424
-0.0484162
1.65149
-0.0494285
-0.0423152
1.65899
0.468893
-2.17304
-0.261281
0.652165
-1.91023
0.81162
-1.65167
0.948648
-1.41194
1.06521
-1.19541
1.16352
-1.00355
1.24588
-0.835717
1.31451
-0.690171
1.37144
-0.566705
1.41853
-0.463144
1.45742
-0.377126
1.48955
-0.306393
1.51617
-0.248863
1.53836
-0.202657
1.55703
-0.166033
1.57297
-0.13718
1.58685
-0.114504
1.59924
-0.0975975
1.61059
-0.0855204
1.62131
-0.0774576
1.63171
-0.0727314
1.64106
-0.0619023
1.64973
-0.0551167
1.65789
-0.0501333
1.66567
-0.0467217
1.67315
-0.0449694
1.68043
-0.0442899
1.68755
-0.0442213
1.69459
-0.0446171
1.70159
-0.0453525
1.70858
-0.0463294
1.71558
-0.0474738
1.72261
-0.0487076
1.7297
-0.0497994
1.73684
-0.0510749
1.74404
-0.0524228
1.7513
-0.0537888
1.75863
-0.0545403
1.76602
-0.0558072
1.77347
-0.0568786
-0.0500331
1.78119
0.502168
-2.39799
-0.277218
0.700758
-2.10882
0.873566
-1.82448
1.0221
-1.56047
1.14847
-1.32179
1.25509
-1.11017
1.34442
-0.925047
1.41887
-0.764619
1.48063
-0.628468
1.5317
-0.514213
1.57385
-0.419277
1.60864
-0.341181
1.63741
-0.277639
1.66134
-0.226581
1.6814
-0.186095
1.69845
-0.154233
1.71323
-0.129278
1.72632
-0.110692
1.73824
-0.097441
1.74941
-0.0886303
1.7602
-0.0835157
1.76985
-0.0715513
1.77877
-0.0640404
1.78714
-0.058505
1.7951
-0.0546786
1.80274
-0.0526106
1.81015
-0.0517018
1.81741
-0.0514787
1.82457
-0.0517795
1.83169
-0.0524661
1.83879
-0.0534298
1.8459
-0.0545877
1.85305
-0.0558552
1.86025
-0.056999
1.8675
-0.0583319
1.87482
-0.0597409
1.8822
-0.0611697
1.88966
-0.0619961
1.89718
-0.0633241
1.90475
-0.0644564
-0.0578903
1.91261
0.538356
-2.64186
-0.294489
0.753665
-2.32412
0.941054
-2.01186
1.10216
-1.72157
1.23926
-1.45889
1.35496
-1.22587
1.45192
-1.02201
1.53275
-0.845443
1.5998
-0.695521
1.65523
-0.569646
1.70096
-0.465006
1.73867
-0.378886
1.7698
-0.308777
1.79563
-0.252404
1.81721
-0.207675
1.83546
-0.172489
1.85118
-0.144999
1.86502
-0.124528
1.87752
-0.109937
1.88913
-0.100248
1.90026
-0.0946438
1.91017
-0.0814623
1.9193
-0.0731627
1.92782
-0.0670265
1.93589
-0.062748
1.94361
-0.0603358
1.95109
-0.0591762
1.95839
-0.0587834
1.96559
-0.0589783
1.97273
-0.0596089
1.97986
-0.0605551
1.987
-0.0617245
1.99417
-0.0630252
2.00139
-0.0642221
2.00867
-0.065614
2.01602
-0.0670861
2.02343
-0.0685795
2.03092
-0.069485
2.03847
-0.0708764
2.04608
-0.0720724
-0.0657995
2.05399
0.577699
-2.90638
-0.313172
0.811271
-2.5577
1.01459
-2.21519
1.18944
-1.89642
1.33828
-1.60774
1.46393
-1.35151
1.56926
-1.12734
1.65707
-0.933256
1.72993
-0.768378
1.79015
-0.629869
1.83981
-0.514662
1.88071
-0.419789
1.91443
-0.342501
1.94233
-0.280302
1.96556
-0.230904
1.98511
-0.192042
2.00184
-0.161729
2.01645
-0.139135
2.02952
-0.123012
2.04157
-0.112289
2.05299
-0.106071
2.06311
-0.0915808
2.07237
-0.0824188
2.08097
-0.0756244
2.08907
-0.0708492
2.09679
-0.0680578
2.10423
-0.0666208
2.11149
-0.0660387
2.11863
-0.0661136
2.12569
-0.0666785
2.13274
-0.0676009
2.13979
-0.068778
2.14688
-0.0701101
2.15402
-0.0713606
2.16122
-0.0728128
2.16848
-0.0743496
2.17581
-0.0759101
2.18322
-0.0768988
2.19071
-0.0783564
2.19825
-0.0796194
-0.0736557
2.20611
0.620465
-3.19349
-0.33336
0.874001
-2.81123
1.09475
-2.43593
1.28463
-2.0863
1.44633
-1.76944
1.58287
-1.48806
1.69737
-1.24184
1.79286
-1.02874
1.87209
-0.847608
1.93757
-0.695352
1.99154
-0.568631
2.03595
-0.464203
2.07251
-0.379059
2.10268
-0.310466
2.1277
-0.255924
2.14864
-0.212991
2.16644
-0.179527
2.18185
-0.15454
2.1955
-0.136662
2.20793
-0.124722
2.2196
-0.11774
2.22986
-0.101838
2.23917
-0.0917284
2.24775
-0.0842087
2.25578
-0.0788842
2.2634
-0.0756722
2.2707
-0.0739256
2.27779
-0.0731298
2.28475
-0.0730667
2.29162
-0.0735532
2.29846
-0.074443
2.30531
-0.0756223
2.31218
-0.0769829
2.31911
-0.0782865
2.32609
-0.0797994
2.33315
-0.0814025
2.34027
-0.0830321
2.34748
-0.0841084
2.35476
-0.0856355
2.36211
-0.0869693
-0.0813327
2.36978
0.666951
-3.50529
-0.355148
0.942332
-3.08661
1.18215
-2.67575
1.38851
-2.29265
1.56429
-1.94522
1.71279
-1.63655
1.83735
-1.36641
1.94126
-1.13265
2.02749
-0.93384
2.09875
-0.766616
2.15746
-0.627339
2.20573
-0.512472
2.2454
-0.418724
2.27804
-0.343106
2.305
-0.282889
2.32745
-0.235441
2.34638
-0.198456
2.36261
-0.170765
2.37682
-0.150874
2.38959
-0.1375
2.40143
-0.129573
2.41174
-0.112146
2.421
-0.100992
2.42946
-0.0926693
2.43731
-0.0867341
2.44469
-0.0830524
2.45172
-0.0809576
2.45851
-0.0799187
2.46514
-0.0796956
2.47167
-0.0800873
2.47816
-0.0809331
2.48465
-0.0821069
2.49116
-0.0834914
2.49772
-0.0848466
2.50434
-0.0864199
2.51103
-0.0880903
2.51778
-0.0897909
2.52463
-0.0909592
2.53156
-0.092559
2.53856
-0.0939677
-0.0886784
2.5459
0.717488
-3.84414
-0.378643
1.01679
-3.38592
1.27751
-2.93647
1.50192
-2.51706
1.69316
-2.13646
1.85477
-1.79817
1.99039
-1.50203
2.10356
-1.24581
2.19749
-1.02777
2.27511
-0.844239
2.33904
-0.691259
2.39154
-0.564975
2.43461
-0.461795
2.46995
-0.37845
2.49903
-0.311966
2.52309
-0.259503
2.54321
-0.218576
2.56027
-0.187828
2.57502
-0.165623
2.58808
-0.150562
2.59999
-0.141476
2.61024
-0.122396
2.61933
-0.110086
2.62753
-0.100872
2.63506
-0.0942551
2.64205
-0.0900462
2.64865
-0.0875578
2.65497
-0.0862404
2.66111
-0.0858303
2.66712
-0.0861072
2.67309
-0.0868943
2.67903
-0.0880525
2.68499
-0.0894544
2.691
-0.0908579
2.69708
-0.0924904
2.70321
-0.0942283
2.70942
-0.0960015
2.71573
-0.0972661
2.72211
-0.0989421
2.72858
-0.10043
-0.0955103
2.73541
0.772441
-4.21262
-0.40396
1.09797
-3.71145
1.38161
-3.22011
1.62582
-2.76128
1.83403
-2.34467
2.01006
-1.97419
2.15784
-1.64982
2.2812
-1.36916
2.3836
-1.13018
2.46823
-0.928864
2.53789
-0.760917
2.59505
-0.622136
2.64185
-0.508603
2.68015
-0.416749
2.71152
-0.343334
2.73731
-0.285292
2.75868
-0.239948
2.77659
-0.205737
2.79184
-0.180872
2.80511
-0.163828
2.81696
-0.153326
2.82701
-0.132454
2.83579
-0.118862
2.84357
-0.108654
2.85059
-0.101273
2.85701
-0.0964699
2.86299
-0.0935344
2.86864
-0.0918967
2.87408
-0.0912672
2.87938
-0.0914046
2.8846
-0.0921148
2.88979
-0.0932443
2.89499
-0.0946547
2.90023
-0.0961017
2.90553
-0.0977909
2.9109
-0.0995957
2.91634
-0.101442
2.92188
-0.102807
2.9275
-0.104563
2.93321
-0.106135
-0.101609
2.93931
0.832215
-4.61361
-0.431223
1.18652
-4.06575
1.49532
-3.5289
1.7613
-3.02726
1.98815
-2.57153
2.18004
-2.16608
2.34121
-1.81098
2.47578
-1.50374
2.58753
-1.24193
2.67987
-1.02121
2.75585
-0.836894
2.81813
-0.684421
2.86904
-0.559514
2.91057
-0.45828
2.94443
-0.377188
2.97207
-0.312935
2.99475
-0.262631
3.01351
-0.224492
3.0292
-0.196568
3.04257
-0.177193
3.05421
-0.164972