/*--------------------------------*- C++ -*----------------------------------*\
| =========                 |                                                 |
| \\      /  F ield         | OpenFOAM: The Open Source CFD Toolbox           |
|  \\    /   O peration     | Version:  5.x                                   |
|   \\  /    A nd           | Web:      www.OpenFOAM.org                      |
|    \\/     M anipulation  |                                                 |
\*---------------------------------------------------------------------------*/
FoamFile
{
    version     2.0;
    format      ascii;
    class       volVectorField;
    location    "100";
    object      U;
}
// * * * * * * * * * * * * * * * * * * * * * * * * * * * * * * * * * * * * * //

dimensions      [0 1 -1 0 0 0 0];

internalField   nonuniform List<vector> 
11040
(
(5.08796 32.5682 -7.79713e-19)
(14.7999 36.5296 0)
(22.2491 31.6174 -1.92026e-17)
(25.9399 23.8423 -2.16503e-17)
(27.5235 17.4077 -1.20648e-17)
(28.5351 13.2459 -3.42056e-17)
(29.3721 10.6151 -1.24557e-17)
(29.5617 8.42745 1.16366e-17)
(29.1771 6.52556 9.37951e-18)
(28.5163 5.02651 0)
(27.7951 3.88983 7.17763e-18)
(27.0824 3.00576 0)
(26.3868 2.29365 0)
(25.7239 1.70949 -4.2311e-18)
(25.118 1.22373 -1.31277e-18)
(24.5321 0.781173 -6.53864e-19)
(23.8273 0.308667 2.80439e-19)
(23.0135 -0.148559 -2.4965e-19)
(22.1677 -0.541028 6.73289e-20)
(21.3325 -0.863295 8.52023e-19)
(20.5043 -1.12669 2.77106e-19)
(19.712 -1.33096 -5.7812e-18)
(18.9616 -1.4823 7.34057e-18)
(18.225 -1.59537 3.13126e-19)
(17.4888 -1.67235 2.1956e-17)
(16.8135 -1.69723 -1.30908e-17)
(16.2351 -1.68293 0)
(15.7217 -1.65477 0)
(15.2352 -1.62288 -1.82666e-17)
(14.7596 -1.5885 6.40653e-19)
(14.2902 -1.55162 -6.5607e-19)
(13.8217 -1.51224 -4.6107e-17)
(13.3475 -1.47004 -3.8137e-19)
(12.8596 -1.42438 0)
(12.3486 -1.3742 5.77938e-17)
(11.8111 -1.3189 -4.7188e-19)
(11.2193 -1.25516 2.47846e-19)
(10.6045 -1.18558 2.55179e-20)
(9.76765 -1.09497 3.87744e-17)
(9.27851 -0.966388 -1.64608e-19)
(6.42242 -1.29113 -9.93581e-17)
(11.6795 27.1709 1.95055e-18)
(22.8154 28.3359 -1.61896e-18)
(31.3895 25.9822 6.14453e-18)
(35.6955 22.5159 3.34336e-18)
(37.0958 18.9569 0)
(37.0791 15.7281 1.32638e-17)
(36.581 12.9365 0)
(35.9278 10.3849 -6.10526e-18)
(34.99 8.22433 -1.1045e-17)
(33.8756 6.51673 0)
(32.7419 5.1629 -9.62081e-18)
(31.6608 4.06358 1.02327e-18)
(30.6473 3.15894 -3.85151e-18)
(29.7035 2.40816 7.28502e-19)
(28.8416 1.7728 2.06642e-18)
(28.0719 1.19088 0)
(27.3156 0.602895 6.17543e-20)
(26.4719 0.080434 2.14037e-19)
(25.566 -0.355523 4.14372e-20)
(24.6386 -0.720332 -5.08753e-19)
(23.7037 -1.02563 -1.62608e-19)
(22.8029 -1.26769 1.69522e-19)
(21.9622 -1.45162 -4.05959e-18)
(21.1594 -1.59214 -3.10218e-19)
(20.3714 -1.68707 -6.5859e-18)
(19.6135 -1.71595 -4.77593e-19)
(18.9309 -1.70834 5.24297e-19)
(18.3225 -1.69402 0)
(17.7601 -1.67586 1.08373e-17)
(17.2266 -1.65246 -1.21633e-17)
(16.7126 -1.62429 1.31341e-17)
(16.2101 -1.59176 1.41674e-17)
(15.711 -1.55473 -4.4853e-19)
(15.2073 -1.51267 0)
(14.6895 -1.46464 -1.66928e-17)
(14.1552 -1.40985 0)
(13.5786 -1.34545 -1.89385e-17)
(12.996 -1.27189 2.01088e-17)
(12.2033 -1.17598 -2.15713e-17)
(11.7902 -1.05616 -2.28037e-17)
(9.61945 -1.16279 0)
(13.1258 24.0807 -1.0264e-18)
(20.3365 26.8283 9.93945e-19)
(27.2593 26.3013 6.22976e-18)
(32.3729 23.801 8.37818e-18)
(35.4518 20.5878 1.05926e-18)
(36.9863 17.3964 7.11583e-18)
(37.5966 14.503 -8.33628e-18)
(37.6263 11.8207 -2.03056e-18)
(37.1404 9.4829 6.19529e-18)
(36.2951 7.55665 3.54954e-18)
(35.287 5.99398 1.75354e-18)
(34.2407 4.72153 1.51203e-18)
(33.2104 3.6784 2.35436e-18)
(32.2216 2.81557 4.31989e-19)
(31.2961 2.08771 -3.51134e-18)
(30.4391 1.43365 8.3054e-19)
(29.587 0.795515 -4.58976e-19)
(28.6843 0.226239 -6.63547e-20)
(27.7427 -0.257161 6.00431e-20)
(26.7873 -0.666432 5.18725e-19)
(25.8245 -1.01045 -1.41967e-19)
(24.8929 -1.2858 -2.38437e-18)
(24.0183 -1.49604 0)
(23.1804 -1.65618 -3.98224e-18)
(22.3638 -1.76616 0)
(21.5879 -1.81098 1.12152e-17)
(20.8826 -1.81689 -6.79024e-18)
(20.2427 -1.81024 7.5169e-18)
(19.6459 -1.79519 -8.28397e-18)
(19.0778 -1.77221 9.52829e-18)
(18.5304 -1.74281 -9.69351e-18)
(17.9965 -1.70774 3.13492e-19)
(17.4683 -1.66703 -1.07776e-17)
(16.9376 -1.61997 0)
(16.3953 -1.56569 0)
(15.8388 -1.50274 0)
(15.2449 -1.42914 0)
(14.6436 -1.33947 0)
(13.8617 -1.23591 -1.1928e-19)
(13.3616 -1.06565 1.59336e-17)
(11.579 -1.11122 -1.65625e-17)
(14.9471 21.3699 0)
(20.1991 23.9732 -2.64663e-20)
(25.7892 24.3532 -4.80514e-19)
(30.4851 22.8337 1.86102e-18)
(33.7893 20.3146 1.16767e-18)
(35.8209 17.5666 -1.34983e-17)
(36.9589 14.9637 6.65907e-18)
(37.4945 12.5066 8.83605e-18)
(37.5054 10.2677 -1.5319e-18)
(37.0914 8.3333 -1.52989e-18)
(36.4146 6.71343 -2.57179e-18)
(35.6061 5.36421 -5.18932e-20)
(34.7383 4.23593 2.77755e-18)
(33.8525 3.28719 -1.47503e-18)
(32.9823 2.47977 1.73394e-18)
(32.145 1.7611 -1.43281e-18)
(31.2978 1.07344 0)
(30.3985 0.45175 5.2745e-21)
(29.4572 -0.0817729 -2.00207e-21)
(28.4989 -0.534546 -2.97011e-19)
(27.5315 -0.916289 1.89484e-19)
(26.5935 -1.2231 1.94149e-18)
(25.7104 -1.45857 -2.75783e-19)
(24.863 -1.63868 3.10447e-18)
(24.0386 -1.76601 -3.70916e-18)
(23.2545 -1.82866 -4.34286e-18)
(22.536 -1.8479 4.93246e-18)
(21.8788 -1.84923 -5.47404e-18)
(21.2633 -1.83947 5.99241e-18)
(20.6761 -1.81995 0)
(20.1097 -1.79226 -6.9831e-18)
(19.5577 -1.75734 6.99632e-18)
(19.013 -1.71528 8.4644e-18)
(18.4676 -1.66539 8.44871e-18)
(17.913 -1.60671 -8.95314e-18)
(17.3467 -1.53718 0)
(16.7479 -1.45544 0)
(16.141 -1.35161 -1.68027e-19)
(15.3797 -1.23631 1.13561e-17)
(14.8381 -1.02424 1.18572e-17)
(13.2912 -0.987623 -5.81708e-20)
(16.6298 19.0266 0)
(20.3913 21.2655 -2.80892e-18)
(24.6933 22.2287 4.08104e-19)
(28.8177 21.6819 2.89103e-19)
(32.1413 19.9992 -2.87827e-19)
(34.4666 17.7621 5.48626e-18)
(35.9432 15.4081 9.51131e-20)
(36.7988 13.0922 -1.28096e-17)
(37.142 10.923 -3.87163e-18)
(37.0556 8.99279 2.11724e-18)
(36.6678 7.3378 -1.65029e-18)
(36.1036 5.93714 -1.69903e-19)
(35.4415 4.75135 -2.98325e-18)
(34.7256 3.74321 5.15747e-20)
(33.9874 2.87755 4.12448e-19)
(33.2478 2.10946 -3.53214e-19)
(32.4821 1.3851 3.01142e-19)
(31.6563 0.723377 0)
(30.7747 0.148122 1.64012e-21)
(29.8611 -0.343814 1.30109e-19)
(28.9278 -0.761498 0)
(28.0159 -1.09975 0)
(27.1522 -1.36139 5.63479e-19)
(26.3207 -1.56284 1.26578e-18)
(25.5115 -1.70898 4.11704e-18)
(24.7385 -1.79124 3.09003e-18)
(24.023 -1.82653 0)
(23.3635 -1.83896 5.71942e-19)
(22.7439 -1.83727 4.23504e-18)
(22.1515 -1.82343 0)
(21.5793 -1.79922 1.17631e-20)
(21.0213 -1.76583 -6.0001e-18)
(20.4712 -1.7235 6.36828e-18)
(19.9216 -1.67154 -7.18269e-18)
(19.3646 -1.60893 7.11998e-18)
(18.7981 -1.53307 -1.80159e-20)
(18.2041 -1.44287 2.34486e-19)
(17.6025 -1.3252 -8.0671e-18)
(16.8709 -1.1943 -8.80233e-18)
(16.3214 -0.950514 -3.8048e-20)
(14.976 -0.829101 9.23931e-18)
(18.1054 17.0057 -3.75182e-19)
(20.8559 18.8067 2.73573e-18)
(24.0576 19.9689 -1.73393e-18)
(27.438 20.1224 -1.3715e-18)
(30.5355 19.2476 -1.53655e-18)
(33.004 17.6391 3.61212e-18)
(34.7638 15.6711 -1.17764e-18)
(35.9095 13.5822 4.63216e-18)
(36.5345 11.5326 4.43032e-18)
(36.7159 9.63349 -2.69e-18)
(36.5607 7.95187 2.85324e-18)
(36.1879 6.50125 1.19847e-18)
(35.6865 5.26044 1.11666e-18)
(35.1106 4.1979 -8.79416e-19)
(34.4944 3.28089 8.25813e-19)
(33.8603 2.47076 -4.58912e-19)
(33.1969 1.71916 1.0366e-20)
(32.4751 1.02915 3.24429e-19)
(31.6904 0.420509 -8.6409e-20)
(30.8605 -0.105612 -2.24033e-19)
(29.999 -0.556007 6.98948e-19)
(29.1469 -0.92396 9.63975e-20)
(28.3325 -1.2112 -3.77012e-19)
(27.5438 -1.43431 -4.76433e-18)
(26.7742 -1.59998 1.24443e-18)
(26.0346 -1.70314 -7.22867e-18)
(25.3426 -1.75686 7.78502e-19)
(24.6991 -1.78279 3.62245e-18)
(24.0921 -1.79102 -3.96718e-18)
(23.5103 -1.78448 5.50982e-19)
(22.9474 -1.7652 4.6317e-18)
(22.3978 -1.73459 -5.97283e-19)
(21.8558 -1.69306 -1.31284e-20)
(21.3147 -1.63991 0)
(20.7677 -1.57405 -5.41674e-18)
(20.213 -1.49248 -3.74081e-19)
(19.6357 -1.39404 -4.08548e-19)
(19.052 -1.2638 7.13552e-18)
(18.3627 -1.11612 0)
(17.828 -0.850999 -1.46932e-17)
(16.677 -0.66831 0)
(19.3716 15.2619 0)
(21.4413 16.6656 -3.64702e-18)
(23.8121 17.769 2.55099e-18)
(26.4514 18.2783 -2.00658e-19)
(29.1179 18.0208 7.98631e-19)
(31.5029 17.0558 2.22615e-19)
(33.4113 15.5996 -1.12378e-18)
(34.8033 13.867 0)
(35.7041 12.0383 -1.9228e-18)
(36.1591 10.2443 2.14444e-18)
(36.2459 8.58083 -3.72594e-18)
(36.0668 7.0991 -1.88866e-18)
(35.7151 5.80687 8.29736e-19)
(35.2573 4.68777 0)
(34.7371 3.71674 -9.42626e-19)
(34.1834 2.86198 9.62413e-19)
(33.5984 2.08169 1.43729e-19)
(32.964 1.36693 -1.14218e-20)
(32.2716 0.730158 1.62102e-19)
(31.5315 0.174758 -1.96711e-20)
(30.7543 -0.304303 1.31352e-20)
(29.9784 -0.699021 0)
(29.231 -1.00999 0)
(28.5034 -1.25375 1.75423e-18)
(27.7918 -1.43844 0)
(27.104 -1.5624 4.99071e-21)
(26.4538 -1.63566 0)
(25.8439 -1.67666 -3.00784e-18)
(25.266 -1.69624 3.26944e-18)
(24.7108 -1.69834 0)
(24.1725 -1.68526 0)
(23.6462 -1.65861 0)
(23.1271 -1.6189 -4.27719e-18)
(22.6091 -1.56546 -5.06844e-18)
(22.0865 -1.49714 5.3262e-18)
(21.5581 -1.41073 0)
(21.0121 -1.30477 -5.20297e-18)
(20.4616 -1.16414 3.45669e-19)
(19.8306 -1.00099 5.31326e-18)
(19.3299 -0.726209 5.92717e-18)
(18.3717 -0.5068 0)
(20.455 13.7464 -6.13177e-19)
(22.0586 14.8252 5.22351e-18)
(23.8363 15.7638 -3.89259e-18)
(25.8429 16.3808 0)
(27.9996 16.5004 -1.72387e-18)
(30.1122 16.0576 -3.84698e-19)
(31.9848 15.1222 0)
(33.5053 13.8269 0)
(34.6266 12.3207 2.21277e-19)
(35.3432 10.7301 1.17694e-18)
(35.6897 9.16428 1.43963e-18)
(35.7356 7.7035 0)
(35.5621 6.38795 0)
(35.2402 5.22485 -8.63451e-19)
(34.8225 4.2032 0)
(34.346 3.30126 0)
(33.8262 2.48664 0)
(33.2586 1.745 2.43957e-20)
(32.6376 1.08088 -2.33132e-19)
(31.9699 0.497432 2.36249e-19)
(31.2651 -0.00862577 -3.13864e-19)
(30.5592 -0.428035 0)
(29.8773 -0.760943 0)
(29.2123 -1.02421 0)
(28.5622 -1.22698 0)
(27.9322 -1.37071 2.00054e-18)
(27.3321 -1.4634 -2.24929e-18)
(26.7653 -1.52019 2.48333e-18)
(26.2265 -1.55186 -5.41651e-18)
(25.7084 -1.5633 2.91356e-18)
(25.2058 -1.55714 -3.11516e-18)
(24.7143 -1.53513 0)
(24.23 -1.49792 0)
(23.7475 -1.44491 1.71046e-20)
(23.2623 -1.37487 0)
(22.7737 -1.28465 -4.04455e-18)
(22.2733 -1.17247 8.47688e-18)
(21.7714 -1.02445 2.79865e-19)
(21.2142 -0.849648 -3.2353e-19)
(20.7643 -0.576825 0)
(19.9956 -0.341177 -4.59661e-18)
(21.3788 12.4223 0)
(22.6512 13.2473 -1.40821e-19)
(24.0135 14.0025 1.40187e-18)
(25.5334 14.5882 2.36133e-18)
(27.2134 14.8792 -9.25285e-19)
(28.9643 14.7819 1.45863e-18)
(30.648 14.2779 0)
(32.1459 13.4178 0)
(33.3747 12.2891 0)
(34.2853 10.9865 0)
(34.8677 9.60821 9.03724e-19)
(35.1493 8.24439 -2.0911e-18)
(35.1832 6.95915 7.27806e-19)
(35.0297 5.78527 -6.3709e-19)
(34.7428 4.73156 0)
(34.3649 3.79069 -7.2893e-19)
(33.9221 2.94228 5.87208e-19)
(33.4226 2.17258 -2.06537e-20)
(32.8669 1.48043 0)
(32.2615 0.868118 0)
(31.6163 0.334461 0)
(30.9669 -0.109803 0)
(30.3387 -0.464627 0)
(29.7266 -0.747332 0)
(29.1298 -0.967893 -1.4525e-18)
(28.5515 -1.13046 0)
(27.9985 -1.24215 2.83771e-18)
(27.4736 -1.31509 -3.0443e-18)
(26.9741 -1.35939 4.46944e-18)
(26.4942 -1.38058 -2.40952e-18)
(26.0295 -1.38173 1.32837e-18)
(25.5764 -1.36475 -5.43849e-18)
(25.1312 -1.3305 1.40442e-18)
(24.6898 -1.27853 3.79642e-18)
(24.2486 -1.20763 -7.74631e-19)
(23.8075 -1.11495 3.31252e-18)
(23.3614 -0.99858 -3.45208e-18)
(22.9181 -0.847069 -4.52037e-19)
(22.4433 -0.666527 4.098e-19)
(22.0544 -0.406029 0)
(21.4628 -0.170161 3.73578e-18)
(22.1639 11.2608 2.52518e-19)
(23.1926 11.8905 0)
(24.2605 12.4806 6.36803e-18)
(25.4246 12.9787 -8.44197e-18)
(26.7144 13.3087 4.91802e-18)
(28.1042 13.3944 -3.11912e-18)
(29.5194 13.1883 7.71734e-19)
(30.8718 12.6873 -1.0502e-18)
(32.0806 11.9239 4.25344e-19)
(33.0789 10.9471 2.89784e-19)
(33.826 9.82533 2.88452e-19)
(34.3113 8.63627 5.06747e-19)
(34.5524 7.45055 2.3951e-19)
(34.5868 6.3186 -8.52745e-19)
(34.4579 5.26886 6.25469e-19)
(34.2069 4.31111 7.17542e-21)
(33.8653 3.43964 0)
(33.4506 2.64696 4.6236e-22)
(32.9707 1.93046 -5.14265e-19)
(32.4334 1.29137 5.23247e-19)
(31.8491 0.730123 1.17216e-18)
(31.2531 0.26 -1.20833e-18)
(30.6723 -0.117858 0)
(30.1048 -0.42108 0)
(29.5519 -0.660307 2.47121e-18)
(29.0165 -0.841695 -1.29871e-18)
(28.503 -0.972193 1.6009e-18)
(28.0139 -1.06176 1.28136e-19)
(27.5478 -1.11948 -7.33955e-18)
(27.101 -1.15124 1.91353e-18)
(26.6698 -1.16047 2.10864e-18)
(26.2511 -1.14933 4.45563e-18)
(25.8422 -1.11888 -1.19863e-18)
(25.4396 -1.06899 -1.24605e-18)
(25.041 -0.998654 0)
(24.6469 -0.905612 -2.66339e-18)
(24.2548 -0.788159 0)
(23.8707 -0.637959 0)
(23.4752 -0.458945 -3.35574e-18)
(23.1474 -0.21906 -2.44131e-18)
(22.7057 0.00545734 -1.84024e-19)
(22.8282 10.2396 -1.13211e-19)
(23.6718 10.7197 0)
(24.5259 11.1731 -2.91585e-18)
(25.4331 11.5727 -5.071e-18)
(26.4255 11.8756 5.18739e-18)
(27.5058 12.0317 1.61095e-18)
(28.643 11.9966 0)
(29.7862 11.7474 -1.28634e-18)
(30.8765 11.2807 0)
(31.8539 10.6102 6.19062e-19)
(32.6684 9.76898 9.93431e-20)
(33.2866 8.80837 2.65917e-19)
(33.6969 7.78707 -3.56989e-20)
(33.909 6.75839 2.02199e-19)
(33.947 5.76264 6.4827e-21)
(33.8422 4.82461 1.22092e-19)
(33.6241 3.9536 -4.02345e-19)
(33.3147 3.15217 4.14567e-19)
(32.9271 2.42095 0)
(32.4718 1.76195 8.38513e-19)
(31.9598 1.17737 -8.03569e-19)
(31.4252 0.683376 1.55645e-19)
(30.8959 0.282794 -3.76406e-19)
(30.374 -0.0417304 0)
(29.863 -0.300822 0)
(29.3664 -0.50165 0)
(28.8881 -0.651303 2.62761e-18)
(28.4305 -0.758314 -2.61654e-18)
(27.9934 -0.830696 1.55186e-18)
(27.5747 -0.874298 1.6086e-18)
(27.1717 -0.892919 0)
(26.7822 -0.889013 -1.13197e-20)
(26.4042 -0.863976 -3.84822e-18)
(26.0352 -0.818089 2.94329e-18)
(25.6737 -0.750771 3.09146e-18)
(25.3209 -0.660582 2.17447e-18)
(24.9763 -0.546397 1.13569e-18)
(24.6443 -0.403049 -2.27859e-18)
(24.3156 -0.23325 8.74004e-19)
(24.0401 -0.0196572 2.7429e-18)
(23.7105 0.184951 0)
(23.3873 9.34121 -9.73438e-20)
(24.0867 9.7064 -2.87525e-18)
(24.7809 10.0509 -2.77644e-19)
(25.5005 10.3608 1.86063e-18)
(26.2726 10.6124 -1.10796e-17)
(27.1091 10.7762 3.50266e-18)
(28.0014 10.8205 -6.99852e-18)
(28.926 10.7219 1.10228e-18)
(29.8485 10.4634 2.50187e-18)
(30.7265 10.0378 -4.30271e-18)
(31.5173 9.45294 -2.96908e-19)
(32.1825 8.73269 0)
(32.6947 7.91442 -4.694e-19)
(33.0423 7.04066 -3.72315e-19)
(33.2288 6.15153 -4.04702e-19)
(33.2693 5.27905 8.72007e-19)
(33.1849 4.44379 -2.20928e-19)
(32.995 3.65854 -9.86163e-19)
(32.7145 2.93035 2.13087e-18)
(32.3554 2.26453 1.88224e-19)
(31.9293 1.66588 -3.48983e-18)
(31.468 1.15392 1.8413e-18)
(30.9999 0.73402 -2.59105e-18)
(30.5308 0.389964 2.78176e-18)
(30.0665 0.111605 0)
(29.6115 -0.108502 -1.49241e-18)
(29.1698 -0.277342 1.99595e-18)
(28.7444 -0.402368 1.13334e-18)
(28.3361 -0.490579 -1.83849e-18)
(27.9445 -0.547573 1.37948e-18)
(27.568 -0.577366 -2.71359e-18)
(27.2054 -0.582709 -2.9768e-18)
(26.8554 -0.565359 3.06006e-18)
(26.5163 -0.526125 8.39364e-19)
(26.1877 -0.465052 -5.03854e-18)
(25.8708 -0.381679 2.57197e-18)
(25.5666 -0.275753 -9.0938e-19)
(25.2779 -0.144834 9.24987e-19)
(25.0012 0.00879518 -2.36511e-18)
(24.7668 0.192973 2.33304e-19)
(24.5127 0.37138 2.34866e-19)
(23.855 8.55099 0)
(24.4396 8.82796 -2.35512e-18)
(25.0107 9.08716 5.00581e-18)
(25.5904 9.32202 4.52585e-18)
(26.1998 9.51938 -3.77686e-18)
(26.8513 9.66277 1.13832e-17)
(27.5463 9.73216 6.41926e-18)
(28.2761 9.71023 0)
(29.0242 9.57955 5.68837e-18)
(29.7658 9.32547 -4.66618e-18)
(30.4713 8.94232 -1.03574e-18)
(31.109 8.43562 0)
(31.6495 7.82228 3.91224e-19)
(32.0711 7.12833 -1.60053e-18)
(32.3626 6.38432 1.33357e-18)
(32.5239 5.62019 0)
(32.5639 4.86052 -1.72995e-19)
(32.4945 4.12449 -2.24369e-18)
(32.3274 3.42531 1.92459e-18)
(32.0737 2.77294 -1.16681e-19)
(31.7443 2.17569 1.80311e-18)
(31.3673 1.65669 -4.00119e-18)
(30.9704 1.22474 -9.28553e-20)
(30.5628 0.865958 2.42623e-18)
(30.1525 0.571447 1.82005e-19)
(29.7451 0.334225 -3.90597e-19)
(29.3453 0.147721 -3.5777e-18)
(28.9566 0.00531576 -2.4307e-19)
(28.5809 -0.0991005 3.89072e-18)
(28.219 -0.170668 5.34378e-19)
(27.8707 -0.213363 0)
(27.5358 -0.230138 1.83371e-18)
(27.2139 -0.223111 -2.43757e-18)
(26.904 -0.19368 1.96943e-18)
(26.6064 -0.142582 -1.32165e-18)
(26.3225 -0.070315 -7.00317e-19)
(26.0537 0.0224748 7.09843e-19)
(25.8018 0.136218 1.46765e-18)
(25.5655 0.268607 7.58008e-19)
(25.3631 0.422366 0)
(25.1585 0.571316 0)
(24.2437 7.85689 0)
(24.735 8.06595 8.59156e-18)
(25.2091 8.25902 -8.53808e-18)
(25.6818 8.43367 0)
(26.1693 8.58257 0)
(26.6822 8.69672 -1.62438e-17)
(27.2248 8.76422 1.00296e-17)
(27.7955 8.77395 1.0912e-17)
(28.3879 8.71243 -1.09698e-17)
(28.9895 8.56574 0)
(29.5829 8.32365 8.77998e-18)
(30.1466 7.98244 -7.91204e-18)
(30.6567 7.546 7.0818e-18)
(31.0913 7.02585 -6.10826e-18)
(31.4334 6.44008 5.10876e-19)
(31.6732 5.81049 3.20727e-18)
(31.809 5.15878 -1.76779e-18)
(31.844 4.50477 0)
(31.7835 3.86456 3.09872e-18)
(31.6349 3.25146 -2.6694e-18)
(31.4061 2.67701 -3.44267e-18)
(31.12 2.16747 -3.01082e-19)
(30.8017 1.73546 -4.04354e-19)
(30.4631 1.37063 4.32297e-18)
(30.1137 1.06623 -2.70817e-18)
(29.7604 0.816465 2.58319e-18)
(29.4085 0.615674 -2.98706e-18)
(29.0622 0.458167 -1.82009e-19)
(28.7244 0.338679 2.36042e-19)
(28.397 0.252598 2.97424e-18)
(28.0809 0.196112 3.75829e-18)
(27.7767 0.166174 -5.25346e-18)
(27.4849 0.160399 -7.30843e-20)
(27.2052 0.176916 2.30591e-18)
(26.9382 0.214394 -2.6761e-19)
(26.6856 0.271588 -2.2468e-18)
(26.4488 0.347109 1.67285e-18)
(26.2287 0.440084 -1.47535e-18)
(26.0249 0.548117 1.17428e-18)
(25.8479 0.671617 -2.97797e-19)
(25.6776 0.790716 0)
(24.5644 7.24862 -3.98934e-18)
(24.9788 7.40526 3.93205e-18)
(25.3747 7.54732 0)
(25.7638 7.67477 0)
(26.1581 7.78349 0)
(26.5664 7.86865 -6.23814e-18)
(26.9932 7.92339 1.71128e-17)
(27.4396 7.94102 -1.12202e-17)
(27.904 7.91234 2.64123e-18)
(28.3809 7.8267 2.48261e-18)
(28.8614 7.6746 1.07205e-17)
(29.3326 7.4492 -6.9468e-19)
(29.7783 7.14813 -3.45294e-18)
(30.1812 6.7741 -7.10069e-18)
(30.525 6.33502 -4.38741e-18)
(30.797 5.84355 4.65935e-18)
(30.9895 5.31496 -6.12925e-19)
(31.0988 4.76528 5.75441e-18)
(31.1244 4.20941 -1.09073e-17)
(31.0682 3.66119 -2.70796e-19)
(30.9342 3.13346 6.26832e-18)
(30.7383 2.65375 2.29175e-19)
(30.5013 2.23784 -4.10121e-18)
(30.2358 1.87962 3.86737e-18)
(29.9523 1.5751 4.43993e-18)
(29.6581 1.32033 -4.47061e-18)
(29.3593 1.11103 1.94916e-20)
(29.0607 0.942679 -4.11554e-20)
(28.766 0.810964 0)
(28.478 0.711915 -9.05769e-20)
(28.1984 0.642054 9.44297e-20)
(27.9286 0.598407 0)
(27.6695 0.578452 1.01481e-19)
(27.4217 0.579985 -2.11025e-19)
(27.1859 0.601249 2.17591e-19)
(26.9638 0.640522 0)
(26.7565 0.695982 -1.94608e-18)
(26.5644 0.766071 1.48116e-18)
(26.3875 0.848492 0)
(26.2317 0.942783 7.19703e-19)
(26.0862 1.03346 -4.6854e-19)
(24.8264 6.71699 1.76297e-18)
(25.1765 6.83309 1.31453e-17)
(25.5085 6.93604 -1.29702e-17)
(25.8309 7.02709 1.79841e-17)
(26.1529 7.1039 -1.1768e-17)
(26.4812 7.16394 5.39828e-18)
(26.8199 7.2033 2.28096e-19)
(27.171 7.21808 -2.46411e-17)
(27.5346 7.20235 1.72674e-17)
(27.9087 7.14873 1.54458e-17)
(28.2893 7.04997 -2.99764e-18)
(28.6694 6.89973 -1.88371e-17)
(29.039 6.6936 1.73717e-18)
(29.3864 6.43015 -1.93363e-18)
(29.6991 6.11149 -1.51642e-18)
(29.9655 5.74328 7.95841e-18)
(30.1764 5.33435 -7.18014e-18)
(30.3253 4.89536 6.08192e-18)
(30.4075 4.4375 1.55956e-19)
(30.4211 3.97243 -6.12528e-18)
(30.3658 3.51192 7.29691e-18)
(30.2503 3.08203 -6.67648e-18)
(30.0901 2.69995 -2.47457e-19)
(29.8967 2.36346 -7.67254e-18)
(29.68 2.07139 7.70571e-18)
(29.4474 1.82187 -4.10914e-18)
(29.205 1.61229 4.10819e-18)
(28.958 1.43954 3.40113e-20)
(28.7105 1.3004 4.70287e-18)
(28.4659 1.1917 -4.63632e-18)
(28.2265 1.11049 4.98531e-18)
(27.9942 1.05405 -5.0648e-18)
(27.7704 1.01995 -8.30421e-20)
(27.556 1.00589 2.76102e-18)
(27.3521 1.00994 -5.49593e-18)
(27.16 1.0302 5.7027e-18)
(26.9808 1.06473 -4.25202e-18)
(26.8144 1.11168 3.04428e-18)
(26.6611 1.16899 -1.48411e-18)
(26.524 1.23597 0)
(26.3978 1.3005 3.71346e-19)
(25.0379 6.25291 -1.53571e-18)
(25.3337 6.33764 -1.14126e-17)
(25.6125 6.41091 1.12302e-17)
(25.8807 6.47448 5.36417e-18)
(26.1452 6.52688 -3.01915e-17)
(26.4113 6.56686 2.96425e-17)
(26.6824 6.59221 -9.34378e-18)
(26.9604 6.60065 -1.33413e-17)
(27.2462 6.58842 2.21678e-17)
(27.5392 6.55062 -1.63975e-17)
(27.8378 6.48222 2.05703e-17)
(28.1383 6.37833 1.69453e-17)
(28.435 6.23487 -1.5173e-17)
(28.7207 6.04914 1.65133e-18)
(28.9867 5.82049 1.5302e-17)
(29.2243 5.55086 -1.41972e-17)
(29.4256 5.24448 7.25212e-19)
(29.5839 4.90739 1.23226e-17)
(29.6933 4.54674 -1.3807e-17)
(29.7496 4.17082 8.08392e-19)
(29.7501 3.7888 -1.52738e-18)
(29.6977 3.42291 -6.35673e-18)
(29.6023 3.08952 7.14757e-18)
(29.4733 2.78914 6.27389e-19)
(29.319 2.5227 -2.059e-19)
(29.1459 2.29013 0)
(28.9596 2.09039 -2.34291e-19)
(28.7651 1.92175 -2.41375e-19)
(28.5666 1.78214 2.484e-19)
(28.3675 1.66929 0)
(28.1705 1.5809 0)
(27.9778 1.51474 -4.31863e-18)
(27.791 1.46867 4.31098e-18)
(27.6112 1.44054 2.79168e-19)
(27.4394 1.42851 -7.12713e-20)
(27.2771 1.4308 0)
(27.1251 1.44559 0)
(26.9833 1.47104 1.49182e-18)
(26.8519 1.50543 -2.69783e-18)
(26.7326 1.54807 1.20055e-18)
(26.6233 1.58966 -2.28063e-19)
(25.2001 5.86669 1.34967e-17)
(25.4517 5.92838 -1.05918e-17)
(25.6878 5.98036 -1.01065e-17)
(25.9131 6.02431 1.93455e-17)
(26.133 6.05922 -9.75601e-18)
(26.3518 6.08459 -9.08064e-18)
(26.5723 6.09916 1.34033e-17)
(26.7962 6.10153 0)
(27.0244 6.08926 4.45106e-18)
(27.2569 6.05909 0)
(27.4931 6.00757 -3.53257e-17)
(27.731 5.9312 3.15456e-17)
(27.9675 5.82678 0)
(28.198 5.69175 -3.78838e-18)
(28.4169 5.52464 1.2397e-17)
(28.6182 5.32555 -2.96783e-17)
(28.7958 5.09636 1.37069e-17)
(28.9441 4.8402 1.72203e-18)
(29.0579 4.5612 -9.32744e-19)
(29.1325 4.26475 9.21752e-19)
(29.1644 3.95727 1.36278e-17)
(29.1531 3.65638 -2.49715e-17)
(29.1042 3.37624 1.25347e-17)
(29.0246 3.11864 -3.96664e-19)
(28.9207 2.88562 4.33097e-19)
(28.7978 2.67816 4.41023e-19)
(28.6604 2.49633 2.14795e-19)
(28.5131 2.33946 2.20845e-19)
(28.3595 2.20641 -7.69367e-18)
(28.203 2.09572 7.45093e-18)
(28.0461 2.00575 7.78271e-18)
(27.8909 1.93481 -1.17243e-17)
(27.7393 1.88117 7.98337e-18)
(27.5922 1.843 -4.27042e-18)
(27.4509 1.81873 5.15389e-19)
(27.3165 1.80684 0)
(27.1898 1.80579 -2.12075e-18)
(27.0707 1.81392 1.8431e-18)
(26.9595 1.82986 -2.6477e-19)
(26.8571 1.85302 -5.40625e-19)
(26.7634 1.87641 4.61878e-19)
(25.3198 5.5587 -2.46009e-18)
(25.5369 5.604 0)
(25.7397 5.64097 -9.08216e-18)
(25.932 5.67108 -8.65108e-18)
(26.1183 5.69363 1.79079e-17)
(26.3018 5.7085 0)
(26.485 5.715 2.52775e-17)
(26.6694 5.71224 -2.53898e-17)
(26.8557 5.69857 -8.08139e-18)
(27.0442 5.67177 -4.00201e-17)
(27.2346 5.62944 3.19643e-17)
(27.426 5.56914 3.94081e-18)
(27.6164 5.48851 0)
(27.8028 5.38551 3.67494e-17)
(27.9817 5.25871 -2.94437e-17)
(28.1489 5.10761 1.58698e-17)
(28.3 4.93284 -1.78127e-17)
(28.4309 4.73601 2.5784e-17)
(28.5371 4.51943 -2.73752e-17)
(28.6148 4.28643 -1.59736e-18)
(28.6604 4.04129 0)
(28.6719 3.79751 1.24975e-17)
(28.6522 3.56663 -2.65374e-17)
(28.6063 3.35077 1.32626e-17)
(28.5388 3.15227 -1.27026e-18)
(28.4536 2.97257 -7.29163e-18)
(28.3545 2.81232 1.47148e-17)
(28.245 2.67149 -6.06397e-18)
(28.1285 2.54959 -9.03594e-19)
(28.0077 2.44578 0)
(27.8849 2.35895 -4.63066e-19)
(27.7621 2.28789 7.49347e-18)
(27.6409 2.23128 -3.67032e-18)
(27.5224 2.18767 -3.29608e-18)
(27.4076 2.15579 -4.79097e-19)
(27.2976 2.13443 4.85482e-19)
(27.1931 2.12235 4.8862e-19)
(27.094 2.11816 2.46557e-18)
(27.0008 2.12076 -2.46021e-18)
(26.9139 2.12968 1.4811e-18)
(26.8339 2.13977 -2.42032e-19)
(25.4101 5.30927 0)
(25.5995 5.34257 0)
(25.7758 5.36872 1.68379e-17)
(25.9422 5.38894 -3.3318e-17)
(26.1022 5.40269 1.67655e-17)
(26.2586 5.41012 -1.64093e-17)
(26.4135 5.41084 0)
(26.568 5.40427 -3.9571e-17)
(26.723 5.38927 3.18615e-17)
(26.8787 5.36426 3.85733e-17)
(27.0351 5.32756 -3.10452e-17)
(27.1915 5.27744 3.97093e-18)
(27.3467 5.21219 0)
(27.4988 5.13027 1.5712e-19)
(27.6453 5.03052 -3.69433e-18)
(27.7835 4.91233 -3.64865e-18)
(27.9101 4.77589 -1.92175e-19)
(28.0222 4.62195 0)
(28.1164 4.45183 -1.01132e-19)
(28.1896 4.2676 0)
(28.2386 4.07208 -1.52102e-17)
(28.2612 3.87544 1.33781e-17)
(28.2587 3.68682 0)
(28.2345 3.50817 1.33874e-17)
(28.1919 3.34172 -1.24925e-17)
(28.134 3.18895 1.35289e-17)
(28.0635 3.05074 -1.51587e-17)
(27.9833 2.92739 -1.70598e-18)
(27.8959 2.8188 8.48564e-19)
(27.8038 2.72452 8.79971e-19)
(27.7089 2.64387 4.33893e-19)
(27.6129 2.57599 6.23271e-18)
(27.5171 2.51993 -7.98664e-18)
(27.4226 2.47458 2.26387e-18)
(27.3303 2.43895 -2.68541e-18)
(27.2411 2.41212 -4.52931e-19)
(27.1557 2.39315 1.37804e-18)
(27.0741 2.38086 -2.27893e-18)
(26.9965 2.37443 -1.83975e-18)
(26.9236 2.3735 9.13426e-19)
(26.856 2.37432 -6.77621e-19)
(25.4794 5.1032 -7.90448e-18)
(25.6461 5.12757 7.91578e-18)
(25.8008 5.1458 -1.55835e-17)
(25.9462 5.15884 6.38282e-20)
(26.085 5.16626 3.07411e-17)
(26.22 5.16836 1.52196e-17)
(26.3526 5.16496 3.02084e-17)
(26.484 5.15567 -4.47236e-19)
(26.6148 5.13965 1.47171e-17)
(26.7454 5.1158 -3.76532e-17)
(26.8757 5.08289 7.48182e-18)
(27.0053 5.03969 -2.89558e-17)
(27.1334 4.98497 5.81279e-17)
(27.2587 4.91761 -3.97632e-17)
(27.3795 4.83671 3.47929e-18)
(27.4937 4.74177 7.00749e-18)
(27.5993 4.6328 2.75584e-17)
(27.694 4.51019 -2.77405e-17)
(27.7753 4.3747 -2.91217e-17)
(27.8408 4.22763 3.07117e-17)
(27.8881 4.07086 -8.38659e-18)
(27.9148 3.91209 1.50501e-17)
(27.9216 3.75842 1.68663e-18)
(27.9109 3.61148 0)
(27.8851 3.47317 1.32235e-17)
(27.8463 3.34484 -1.31417e-17)
(27.7966 3.22736 8.11954e-19)
(27.7383 3.12117 1.41646e-17)
(27.6733 3.02637 -1.32738e-17)
(27.6037 2.94275 -8.27124e-19)
(27.5309 2.86991 -6.76757e-18)
(27.4564 2.80727 7.5628e-18)
(27.3814 2.75414 8.41264e-19)
(27.3067 2.7097 8.4502e-19)
(27.2331 2.67321 -3.41709e-18)
(27.1614 2.64399 6.83202e-18)
(27.0921 2.62132 -2.54736e-18)
(27.0254 2.60426 0)
(26.9615 2.59219 8.54479e-19)
(26.9008 2.58481 0)
(26.8443 2.57951 4.21105e-19)
(25.5336 4.93025 1.43627e-17)
(25.6812 4.94786 -1.43433e-17)
(25.8179 4.96019 4.25703e-17)
(25.9458 4.96795 -1.46104e-17)
(26.0675 4.97078 -4.29389e-17)
(26.1849 4.96907 0)
(26.2997 4.96278 -4.27316e-17)
(26.4126 4.95162 2.87619e-17)
(26.5244 4.935 1.91816e-19)
(26.6351 4.9121 3.53543e-17)
(26.745 4.88205 -2.84002e-17)
(26.8537 4.84393 -1.40769e-17)
(26.9606 4.79688 -7.07e-18)
(27.0648 4.74008 3.44834e-17)
(27.165 4.67288 -2.07455e-17)
(27.26 4.5949 -3.35761e-18)
(27.348 4.50611 -2.02481e-17)
(27.4275 4.40675 2.70388e-17)
(27.4967 4.29728 3.27506e-18)
(27.5538 4.17858 -2.9795e-17)
(27.5968 4.05189 -3.17036e-18)
(27.6239 3.9231 1.72968e-18)
(27.6353 3.79771 2.44262e-17)
(27.6326 3.67701 -1.29739e-17)
(27.6176 3.56253 1.28678e-17)
(27.5919 3.45541 -1.29066e-17)
(27.5571 3.35642 1.28218e-17)
(27.5149 3.26602 -1.45341e-17)
(27.4668 3.18437 1.28159e-17)
(27.4143 3.11142 -1.62438e-18)
(27.3588 3.04693 0)
(27.3013 2.99051 -6.4661e-18)
(27.2428 2.94169 6.41418e-18)
(27.184 2.89985 -7.27246e-18)
(27.1257 2.86444 4.8021e-18)
(27.0684 2.83497 0)
(27.0126 2.81091 -7.99019e-19)
(26.9584 2.79151 0)
(26.9062 2.7763 0)
(26.8561 2.76506 1.59756e-18)
(26.8091 2.75599 -7.85915e-19)
(25.5763 4.78319 -6.54083e-18)
(25.7078 4.79563 1.30209e-17)
(25.8293 4.80354 0)
(25.9426 4.80739 -2.6118e-17)
(26.0498 4.80688 2.65805e-17)
(26.1529 4.80246 0)
(26.2529 4.79416 1.33105e-17)
(26.3509 4.78178 -5.34601e-17)
(26.4472 4.76491 5.43443e-17)
(26.5421 4.74291 1.35692e-17)
(26.6356 4.71516 -6.68587e-18)
(26.7277 4.681 6.6629e-18)
(26.8177 4.6398 1.33844e-17)
(26.9051 4.59098 0)
(26.9889 4.53409 1.98562e-17)
(27.0682 4.46884 -2.1382e-19)
(27.1418 4.39525 -3.61326e-17)
(27.2085 4.31347 2.92415e-17)
(27.267 4.22382 -2.59429e-17)
(27.316 4.12691 -6.51071e-18)
(27.3541 4.02362 2.55295e-17)
(27.3796 3.91847 -2.85513e-17)
(27.3926 3.81574 -3.19547e-18)
(27.3945 3.71642 0)
(27.3864 3.6217 0)
(27.3696 3.53251 0)
(27.3453 3.44948 1.5666e-18)
(27.3147 3.37302 -3.47079e-20)
(27.2791 3.30333 0)
(27.2396 3.24041 1.52067e-18)
(27.1972 3.18411 1.54515e-18)
(27.1529 3.13418 6.13536e-18)
(27.1074 3.09029 -1.22042e-17)
(27.0613 3.05198 -8.11685e-19)
(27.0152 3.01885 6.80946e-18)
(26.9695 2.99054 1.52085e-18)
(26.9247 2.96665 0)
(26.881 2.9466 1.51057e-18)
(26.8384 2.93005 -1.50318e-18)
(26.7974 2.91681 -3.28933e-21)
(26.7586 2.90571 7.35511e-19)
(25.6105 4.65677 0)
(25.7281 4.66525 -5.93744e-18)
(25.8365 4.66981 0)
(25.9374 4.67076 4.81395e-17)
(26.0324 4.66782 -7.36664e-17)
(26.1233 4.66149 2.44219e-17)
(26.2112 4.65183 -1.24887e-16)
(26.2967 4.63873 5.06078e-17)
(26.3803 4.62187 -6.31094e-17)
(26.4623 4.60079 3.85138e-17)
(26.5426 4.57502 0)
(26.6212 4.54409 -5.08845e-17)
(26.6976 4.50755 3.20735e-17)
(26.7715 4.46499 -5.71041e-17)
(26.8421 4.41611 5.08758e-17)
(26.9087 4.36071 5.02926e-17)
(26.9704 4.29883 -3.78362e-17)
(27.0265 4.23061 -3.08306e-18)
(27.0758 4.15629 0)
(27.1175 4.07631 3.07716e-17)
(27.1506 3.99132 -2.45724e-17)
(27.1736 3.90483 0)
(27.1868 3.82022 2.72505e-17)
(27.1911 3.73819 -2.10549e-17)
(27.1873 3.65968 0)
(27.1764 3.5854 3.00931e-18)
(27.1594 3.51587 1.19153e-17)
(27.1372 3.45142 -2.21551e-17)
(27.1107 3.39224 2.20272e-17)
(27.0809 3.33835 -2.34068e-17)
(27.0486 3.28967 1.01831e-17)
(27.0144 3.24601 0)
(26.9789 3.20716 5.79326e-18)
(26.9428 3.17276 -4.31397e-18)
(26.9063 3.14252 1.44085e-18)
(26.87 3.11618 4.30132e-18)
(26.8341 3.09345 -5.67046e-18)
(26.7988 3.07386 -1.40924e-18)
(26.7643 3.05717 1.41342e-18)
(26.7307 3.04322 1.40436e-18)
(26.6988 3.03129 0)
(25.638 4.5471 0)
(25.7435 4.55251 -2.15746e-17)
(25.8407 4.55455 -2.16327e-17)
(25.9309 4.55334 4.47615e-17)
(26.0155 4.54865 4.52243e-17)
(26.0961 4.54098 2.28894e-17)
(26.1736 4.53046 2.31892e-17)
(26.2487 4.51699 -4.69252e-17)
(26.3218 4.50036 3.66367e-19)
(26.393 4.48021 9.58888e-17)
(26.4624 4.45621 1.17505e-17)
(26.5299 4.42802 -6.06405e-17)
(26.5953 4.3953 1.20059e-17)
(26.6582 4.3578 -4.2181e-17)
(26.718 4.3153 4.22963e-17)
(26.7742 4.2677 0)
(26.8262 4.21505 -5.92686e-18)
(26.8734 4.15748 0)
(26.9151 4.09519 2.36812e-17)
(26.9505 4.02853 -4.72062e-17)
(26.9788 3.95797 2.93741e-17)
(26.9992 3.8863 2.94015e-18)
(27.0117 3.81617 0)
(27.017 3.7481 -2.58843e-17)
(27.0158 3.6828 1.99879e-17)