# Forces     
# CofR       : (0.000000e+00 0.000000e+00 0.000000e+00)
# Time       forces(pressure viscous porous)	moments(pressure viscous porous)
1            	((1.544284e+02 8.038607e+02 -9.964554e-17) (8.968896e-01 1.548626e-01 2.062501e-20) (0.000000e+00 0.000000e+00 0.000000e+00)) ((-1.205791e+02 2.316426e+01 4.065410e+02) (-2.322939e-02 1.345334e-01 6.584923e-02) (0.000000e+00 0.000000e+00 0.000000e+00))
2            	((7.754188e+01 6.166252e+02 -4.427568e-17) (1.139767e+00 -6.414514e-02 1.986811e-20) (0.000000e+00 0.000000e+00 0.000000e+00)) ((-9.249377e+01 1.163128e+01 2.976880e+02) (9.621771e-03 1.709650e-01 -4.505852e-02) (0.000000e+00 0.000000e+00 0.000000e+00))
3            	((-3.326021e+01 3.147935e+01 2.087910e-17) (1.117769e+00 -3.073090e-01 -7.868440e-20) (0.000000e+00 0.000000e+00 0.000000e+00)) ((-4.721903e+00 -4.989031e+00 -1.691977e+01) (4.609634e-02 1.676654e-01 -1.748942e-01) (0.000000e+00 0.000000e+00 0.000000e+00))
4            	((-4.928523e+01 -3.293848e+02 2.044553e-17) (1.011903e+00 -2.446242e-01 -8.696731e-20) (0.000000e+00 0.000000e+00 0.000000e+00)) ((4.940772e+01 -7.392785e+00 -2.022175e+02) (3.669363e-02 1.517854e-01 -1.311153e-01) (0.000000e+00 0.000000e+00 0.000000e+00))
5            	((-1.157136e+01 -2.786114e+02 -7.288333e-18) (9.294452e-01 -1.331802e-02 -6.929571e-22) (0.000000e+00 0.000000e+00 0.000000e+00)) ((4.179170e+01 -1.735703e+00 -1.616243e+02) (1.997703e-03 1.394168e-01 4.757451e-03) (0.000000e+00 0.000000e+00 0.000000e+00))
6            	((1.345344e+01 -2.741586e+01 -1.725651e-17) (9.409903e-01 1.234296e-01 3.730948e-20) (0.000000e+00 0.000000e+00 0.000000e+00)) ((4.112380e+00 2.018016e+00 -1.306782e+01) (-1.851444e-02 1.411485e-01 7.539056e-02) (0.000000e+00 0.000000e+00 0.000000e+00))
7            	((7.856897e+00 1.653455e+02 -6.196905e-18) (9.790382e-01 1.334439e-01 -1.806744e-20) (0.000000e+00 0.000000e+00 0.000000e+00)) ((-2.480183e+01 1.178534e+00 9.291896e+01) (-2.001659e-02 1.468557e-01 6.488077e-02) (0.000000e+00 0.000000e+00 0.000000e+00))
8            	((-1.813836e+00 1.894540e+02 5.009208e-18) (9.772022e-01 6.574447e-02 -5.498256e-20) (0.000000e+00 0.000000e+00 0.000000e+00)) ((-2.841810e+01 -2.720754e-01 9.661719e+01) (-9.861671e-03 1.465803e-01 1.166793e-02) (0.000000e+00 0.000000e+00 0.000000e+00))
9            	((-1.505421e+00 1.075237e+02 3.860826e-18) (9.492522e-01 -6.775836e-03 -4.675803e-20) (0.000000e+00 0.000000e+00 0.000000e+00)) ((-1.612855e+01 -2.258131e-01 3.948248e+01) (1.016375e-03 1.423878e-01 -3.120575e-02) (0.000000e+00 0.000000e+00 0.000000e+00))
10           	((1.934949e+00 1.620184e+01 -8.301369e-19) (9.113026e-01 -3.447244e-02 -3.364684e-20) (0.000000e+00 0.000000e+00 0.000000e+00)) ((-2.430276e+00 2.902423e-01 -1.756897e+01) (5.170867e-03 1.366954e-01 -3.615784e-02) (0.000000e+00 0.000000e+00 0.000000e+00))
11           	((1.178137e+00 -2.048303e+01 -2.196459e-18) (8.796029e-01 -1.369504e-02 -3.500715e-20) (0.000000e+00 0.000000e+00 0.000000e+00)) ((3.072454e+00 1.767206e-01 -3.638422e+01) (2.054256e-03 1.319404e-01 -1.044277e-02) (0.000000e+00 0.000000e+00 0.000000e+00))
12           	((-1.468595e+00 -6.309595e+00 -1.021621e-18) (8.559050e-01 2.571694e-02 -3.826114e-20) (0.000000e+00 0.000000e+00 0.000000e+00)) ((9.464392e-01 -2.202892e-01 -2.219937e+01) (-3.857540e-03 1.283858e-01 1.710894e-02) (0.000000e+00 0.000000e+00 0.000000e+00))
13           	((-3.814309e+00 2.628694e+01 2.043905e-18) (8.360215e-01 5.300343e-02 -3.949534e-20) (0.000000e+00 0.000000e+00 0.000000e+00)) ((-3.943040e+00 -5.721463e-01 2.547922e+00) (-7.950514e-03 1.254032e-01 2.794389e-02) (0.000000e+00 0.000000e+00 0.000000e+00))
14           	((-2.075064e+00 6.170661e+01 2.101687e-18) (8.222530e-01 5.814767e-02 -2.939991e-20) (0.000000e+00 0.000000e+00 0.000000e+00)) ((-9.255992e+00 -3.112596e-01 2.536749e+01) (-8.722151e-03 1.233380e-01 2.254613e-02) (0.000000e+00 0.000000e+00 0.000000e+00))
15           	((1.162784e-01 7.310443e+01 1.367649e-18) (8.185549e-01 4.970837e-02 -1.526122e-20) (0.000000e+00 0.000000e+00 0.000000e+00)) ((-1.096566e+01 1.744177e-02 2.924628e+01) (-7.456255e-03 1.227832e-01 1.160607e-02) (0.000000e+00 0.000000e+00 0.000000e+00))
16           	((1.275028e+00 7.033056e+01 5.902617e-19) (8.168026e-01 3.938288e-02 -8.254249e-21) (0.000000e+00 0.000000e+00 0.000000e+00)) ((-1.054958e+01 1.912543e-01 2.255220e+01) (-5.907431e-03 1.225204e-01 4.565194e-03) (0.000000e+00 0.000000e+00 0.000000e+00))
17           	((3.449488e-02 5.572402e+01 1.526237e-18) (8.127550e-01 3.573577e-02 -1.892380e-20) (0.000000e+00 0.000000e+00 0.000000e+00)) ((-8.358603e+00 5.174233e-03 9.808243e+00) (-5.360366e-03 1.219133e-01 4.593198e-03) (0.000000e+00 0.000000e+00 0.000000e+00))
18           	((-1.741612e+00 3.896216e+01 2.109826e-18) (8.035699e-01 3.873610e-02 -3.531616e-20) (0.000000e+00 0.000000e+00 0.000000e+00)) ((-5.844324e+00 -2.612417e-01 -5.794681e-01) (-5.810415e-03 1.205355e-01 9.306884e-03) (0.000000e+00 0.000000e+00 0.000000e+00))
19           	((-2.889811e+00 3.206228e+01 2.815427e-18) (7.923902e-01 4.420056e-02 -4.664400e-20) (0.000000e+00 0.000000e+00 0.000000e+00)) ((-4.809341e+00 -4.334717e-01 -2.321766e+00) (-6.630084e-03 1.188585e-01 1.433899e-02) (0.000000e+00 0.000000e+00 0.000000e+00))
20           	((-3.234901e+00 3.649532e+01 3.454347e-18) (7.856412e-01 4.817962e-02 -4.931774e-20) (0.000000e+00 0.000000e+00 0.000000e+00)) ((-5.474298e+00 -4.852352e-01 3.495503e+00) (-7.226942e-03 1.178462e-01 1.704848e-02) (0.000000e+00 0.000000e+00 0.000000e+00))
21           	((-2.526293e+00 4.884760e+01 3.425697e-18) (7.847695e-01 4.971096e-02 -4.376536e-20) (0.000000e+00 0.000000e+00 0.000000e+00)) ((-7.327140e+00 -3.789439e-01 1.212606e+01) (-7.456644e-03 1.177154e-01 1.703894e-02) (0.000000e+00 0.000000e+00 0.000000e+00))
22           	((-1.586661e+00 5.882848e+01 2.953549e-18) (7.876425e-01 5.039315e-02 -3.466497e-20) (0.000000e+00 0.000000e+00 0.000000e+00)) ((-8.824272e+00 -2.379991e-01 1.703415e+01) (-7.558972e-03 1.181464e-01 1.538211e-02) (0.000000e+00 0.000000e+00 0.000000e+00))
23           	((-8.763379e-01 6.257119e+01 2.338416e-18) (7.899564e-01 5.084461e-02 -2.582945e-20) (0.000000e+00 0.000000e+00 0.000000e+00)) ((-9.385678e+00 -1.314507e-01 1.694070e+01) (-7.626691e-03 1.184935e-01 1.361112e-02) (0.000000e+00 0.000000e+00 0.000000e+00))
24           	((-8.924477e-01 5.830308e+01 2.015406e-18) (7.907460e-01 5.150346e-02 -2.309564e-20) (0.000000e+00 0.000000e+00 0.000000e+00)) ((-8.745462e+00 -1.338671e-01 1.235143e+01) (-7.725519e-03 1.186119e-01 1.276379e-02) (0.000000e+00 0.000000e+00 0.000000e+00))
25           	((-1.966741e+00 5.095826e+01 3.271930e-18) (7.887840e-01 5.161877e-02 -2.985709e-20) (0.000000e+00 0.000000e+00 0.000000e+00)) ((-7.643739e+00 -2.950112e-01 7.210156e+00) (-7.742815e-03 1.183176e-01 1.302306e-02) (0.000000e+00 0.000000e+00 0.000000e+00))
26           	((-2.743448e+00 4.418144e+01 3.792429e-18) (7.862747e-01 5.106727e-02 -3.797181e-20) (0.000000e+00 0.000000e+00 0.000000e+00)) ((-6.627215e+00 -4.115172e-01 3.734084e+00) (-7.660090e-03 1.179412e-01 1.400258e-02) (0.000000e+00 0.000000e+00 0.000000e+00))
27           	((-3.209877e+00 4.338464e+01 4.326727e-18) (7.834763e-01 5.148331e-02 -4.443183e-20) (0.000000e+00 0.000000e+00 0.000000e+00)) ((-6.507696e+00 -4.814816e-01 4.552631e+00) (-7.722496e-03 1.175214e-01 1.505475e-02) (0.000000e+00 0.000000e+00 0.000000e+00))
28           	((-3.210632e+00 4.822061e+01 4.597185e-18) (7.824779e-01 5.283419e-02 -4.650998e-20) (0.000000e+00 0.000000e+00 0.000000e+00)) ((-7.233092e+00 -4.815948e-01 8.440719e+00) (-7.925128e-03 1.173717e-01 1.557444e-02) (0.000000e+00 0.000000e+00 0.000000e+00))
29           	((-2.749872e+00 5.571277e+01 4.482729e-18) (7.835362e-01 5.444928e-02 -4.401582e-20) (0.000000e+00 0.000000e+00 0.000000e+00)) ((-8.356916e+00 -4.124808e-01 1.291958e+01) (-8.167392e-03 1.175304e-01 1.522516e-02) (0.000000e+00 0.000000e+00 0.000000e+00))
30           	((-2.274315e+00 5.946465e+01 4.123795e-18) (7.863154e-01 5.566845e-02 -3.952111e-20) (0.000000e+00 0.000000e+00 0.000000e+00)) ((-8.919697e+00 -3.411473e-01 1.425364e+01) (-8.350267e-03 1.179473e-01 1.423967e-02) (0.000000e+00 0.000000e+00 0.000000e+00))
31           	((-1.988329e+00 5.901922e+01 3.726545e-18) (7.887269e-01 5.560430e-02 -3.477821e-20) (0.000000e+00 0.000000e+00 0.000000e+00)) ((-8.852883e+00 -2.982494e-01 1.273923e+01) (-8.340645e-03 1.183090e-01 1.310783e-02) (0.000000e+00 0.000000e+00 0.000000e+00))
32           	((-2.370894e+00 5.580580e+01 4.275365e-18) (7.897534e-01 5.484019e-02 -3.371378e-20) (0.000000e+00 0.000000e+00 0.000000e+00)) ((-8.370870e+00 -3.556342e-01 9.942706e+00) (-8.226029e-03 1.184630e-01 1.241364e-02) (0.000000e+00 0.000000e+00 0.000000e+00))
33           	((-2.845720e+00 5.125773e+01 4.721078e-18) (7.893833e-01 5.362277e-02 -3.448200e-20) (0.000000e+00 0.000000e+00 0.000000e+00)) ((-7.688659e+00 -4.268580e-01 6.964251e+00) (-8.043416e-03 1.184075e-01 1.239595e-02) (0.000000e+00 0.000000e+00 0.000000e+00))
34           	((-3.193670e+00 4.911254e+01 4.998837e-18) (7.879715e-01 5.365969e-02 -3.676038e-20) (0.000000e+00 0.000000e+00 0.000000e+00)) ((-7.366881e+00 -4.790504e-01 6.073568e+00) (-8.048954e-03 1.181957e-01 1.289169e-02) (0.000000e+00 0.000000e+00 0.000000e+00))
35           	((-3.362567e+00 5.033291e+01 5.258943e-18) (7.866181e-01 5.472969e-02 -3.915136e-20) (0.000000e+00 0.000000e+00 0.000000e+00)) ((-7.549936e+00 -5.043850e-01 7.368358e+00) (-8.209453e-03 1.179927e-01 1.342672e-02) (0.000000e+00 0.000000e+00 0.000000e+00))
36           	((-3.361376e+00 5.435279e+01 5.486996e-18) (7.864262e-01 5.625890e-02 -4.138525e-20) (0.000000e+00 0.000000e+00 0.000000e+00)) ((-8.152918e+00 -5.042064e-01 1.008160e+01) (-8.438835e-03 1.179639e-01 1.354356e-02) (0.000000e+00 0.000000e+00 0.000000e+00))
37           	((-3.289346e+00 5.783628e+01 5.760925e-18) (7.874838e-01 5.703849e-02 -4.275038e-20) (0.000000e+00 0.000000e+00 0.000000e+00)) ((-8.675442e+00 -4.934020e-01 1.199856e+01) (-8.555774e-03 1.181226e-01 1.303332e-02) (0.000000e+00 0.000000e+00 0.000000e+00))
38           	((-3.045421e+00 5.969502e+01 5.680776e-18) (7.891885e-01 5.683431e-02 -4.267612e-20) (0.000000e+00 0.000000e+00 0.000000e+00)) ((-8.954253e+00 -4.568131e-01 1.260841e+01) (-8.525146e-03 1.183783e-01 1.212359e-02) (0.000000e+00 0.000000e+00 0.000000e+00))
39           	((-2.970931e+00 5.925541e+01 5.607781e-18) (7.909049e-01 5.601050e-02 -4.251633e-20) (0.000000e+00 0.000000e+00 0.000000e+00)) ((-8.888311e+00 -4.456397e-01 1.185791e+01) (-8.401575e-03 1.186357e-01 1.118877e-02) (0.000000e+00 0.000000e+00 0.000000e+00))
40           	((-3.190665e+00 5.760303e+01 5.888045e-18) (7.916213e-01 5.546919e-02 -4.320722e-20) (0.000000e+00 0.000000e+00 0.000000e+00)) ((-8.640454e+00 -4.785998e-01 1.045813e+01) (-8.320379e-03 1.187432e-01 1.076702e-02) (0.000000e+00 0.000000e+00 0.000000e+00))
41           	((-3.457316e+00 5.612368e+01 6.159944e-18) (7.914314e-01 5.516950e-02 -4.339566e-20) (0.000000e+00 0.000000e+00 0.000000e+00)) ((-8.418553e+00 -5.185975e-01 9.360468e+00) (-8.275425e-03 1.187147e-01 1.079331e-02) (0.000000e+00 0.000000e+00 0.000000e+00))
42           	((-3.591622e+00 5.562514e+01 6.223496e-18) (7.908342e-01 5.562996e-02 -4.337470e-20) (0.000000e+00 0.000000e+00 0.000000e+00)) ((-8.343771e+00 -5.387433e-01 9.036365e+00) (-8.344494e-03 1.186251e-01 1.107152e-02) (0.000000e+00 0.000000e+00 0.000000e+00))
43           	((-3.695370e+00 5.603271e+01 6.293064e-18) (7.902936e-01 5.632696e-02 -4.328970e-20) (0.000000e+00 0.000000e+00 0.000000e+00)) ((-8.404906e+00 -5.543055e-01 9.335181e+00) (-8.449044e-03 1.185440e-01 1.128758e-02) (0.000000e+00 0.000000e+00 0.000000e+00))
44           	((-3.807473e+00 5.731413e+01 6.530783e-18) (7.900545e-01 5.699737e-02 -4.385711e-20) (0.000000e+00 0.000000e+00 0.000000e+00)) ((-8.597120e+00 -5.711209e-01 1.013817e+01) (-8.549606e-03 1.185082e-01 1.128843e-02) (0.000000e+00 0.000000e+00 0.000000e+00))
45           	((-3.763595e+00 5.886214e+01 6.562718e-18) (7.903563e-01 5.710011e-02 -4.386059e-20) (0.000000e+00 0.000000e+00 0.000000e+00)) ((-8.829320e+00 -5.645392e-01 1.102573e+01) (-8.565017e-03 1.185534e-01 1.104088e-02) (0.000000e+00 0.000000e+00 0.000000e+00))
46           	((-3.717767e+00 5.984151e+01 6.563055e-18) (7.909257e-01 5.713697e-02 -4.431935e-20) (0.000000e+00 0.000000e+00 0.000000e+00)) ((-8.976227e+00 -5.576651e-01 1.150913e+01) (-8.570546e-03 1.186389e-01 1.067438e-02) (0.000000e+00 0.000000e+00 0.000000e+00))
47           	((-3.718674e+00 6.053424e+01 6.571109e-18) (7.913596e-01 5.695269e-02 -4.474089e-20) (0.000000e+00 0.000000e+00 0.000000e+00)) ((-9.080136e+00 -5.578011e-01 1.175939e+01) (-8.542903e-03 1.187039e-01 1.032026e-02) (0.000000e+00 0.000000e+00 0.000000e+00))
48           	((-3.912723e+00 6.082625e+01 6.931566e-18) (7.914634e-01 5.695046e-02 -4.621626e-20) (0.000000e+00 0.000000e+00 0.000000e+00)) ((-9.123938e+00 -5.869084e-01 1.174343e+01) (-8.542569e-03 1.187195e-01 1.008363e-02) (0.000000e+00 0.000000e+00 0.000000e+00))
49           	((-4.061949e+00 6.087760e+01 7.186643e-18) (7.912570e-01 5.673946e-02 -4.698671e-20) (0.000000e+00 0.000000e+00 0.000000e+00)) ((-9.131639e+00 -6.092923e-01 1.155460e+01) (-8.510919e-03 1.186886e-01 9.944424e-03) (0.000000e+00 0.000000e+00 0.000000e+00))
50           	((-4.083831e+00 6.077028e+01 7.222218e-18) (7.908674e-01 5.686801e-02 -4.734174e-20) (0.000000e+00 0.000000e+00 0.000000e+00)) ((-9.115542e+00 -6.125746e-01 1.136285e+01) (-8.530202e-03 1.186301e-01 9.879087e-03) (0.000000e+00 0.000000e+00 0.000000e+00))
51           	((-4.103979e+00 6.069074e+01 7.248394e-18) (7.904228e-01 5.712359e-02 -4.726190e-20) (0.000000e+00 0.000000e+00 0.000000e+00)) ((-9.103611e+00 -6.155969e-01 1.122988e+01) (-8.568538e-03 1.185634e-01 9.847060e-03) (0.000000e+00 0.000000e+00 0.000000e+00))
52           	((-4.204095e+00 6.080975e+01 7.463128e-18) (7.899849e-01 5.754886e-02 -4.777473e-20) (0.000000e+00 0.000000e+00 0.000000e+00)) ((-9.121462e+00 -6.306143e-01 1.121925e+01) (-8.632329e-03 1.184977e-01 9.848252e-03) (0.000000e+00 0.000000e+00 0.000000e+00))
53           	((-4.250095e+00 6.119351e+01 7.623266e-18) (7.896912e-01 5.770892e-02 -4.786090e-20) (0.000000e+00 0.000000e+00 0.000000e+00)) ((-9.179026e+00 -6.375143e-01 1.134585e+01) (-8.656338e-03 1.184537e-01 9.834090e-03) (0.000000e+00 0.000000e+00 0.000000e+00))
54           	((-4.236460e+00 6.166149e+01 7.651692e-18) (7.894762e-01 5.793263e-02 -4.811661e-20) (0.000000e+00 0.000000e+00 0.000000e+00)) ((-9.249223e+00 -6.354690e-01 1.153433e+01) (-8.689894e-03 1.184214e-01 9.805530e-03) (0.000000e+00 0.000000e+00 0.000000e+00))
55           	((-4.259400e+00 6.203163e+01 7.671614e-18) (7.891973e-01 5.807621e-02 -4.820858e-20) (0.000000e+00 0.000000e+00 0.000000e+00)) ((-9.304744e+00 -6.389100e-01 1.169156e+01) (-8.711431e-03 1.183796e-01 9.739623e-03) (0.000000e+00 0.000000e+00 0.000000e+00))
56           	((-4.402010e+00 6.251969e+01 7.893897e-18) (7.886986e-01 5.831613e-02 -4.915521e-20) (0.000000e+00 0.000000e+00 0.000000e+00)) ((-9.377953e+00 -6.603015e-01 1.189755e+01) (-8.747420e-03 1.183048e-01 9.670734e-03) (0.000000e+00 0.000000e+00 0.000000e+00))
57           	((-4.517598e+00 6.298743e+01 8.078281e-18) (7.880965e-01 5.833529e-02 -4.961402e-20) (0.000000e+00 0.000000e+00 0.000000e+00)) ((-9.448114e+00 -6.776396e-01 1.208526e+01) (-8.750293e-03 1.182145e-01 9.582897e-03) (0.000000e+00 0.000000e+00 0.000000e+00))
58           	((-4.533144e+00 6.331560e+01 8.095120e-18) (7.875200e-01 5.846900e-02 -4.991748e-20) (0.000000e+00 0.000000e+00 0.000000e+00)) ((-9.497340e+00 -6.799716e-01 1.221190e+01) (-8.770351e-03 1.181280e-01 9.500841e-03) (0.000000e+00 0.000000e+00 0.000000e+00))
59           	((-4.583974e+00 6.363738e+01 8.228723e-18) (7.869793e-01 5.857903e-02 -5.012367e-20) (0.000000e+00 0.000000e+00 0.000000e+00)) ((-9.545607e+00 -6.875961e-01 1.233247e+01) (-8.786855e-03 1.180469e-01 9.417969e-03) (0.000000e+00 0.000000e+00 0.000000e+00))
60           	((-4.622056e+00 6.404080e+01 8.351230e-18) (7.865587e-01 5.873567e-02 -5.052355e-20) (0.000000e+00 0.000000e+00 0.000000e+00)) ((-9.606120e+00 -6.933085e-01 1.247029e+01) (-8.810351e-03 1.179838e-01 9.359547e-03) (0.000000e+00 0.000000e+00 0.000000e+00))
61           	((-4.651095e+00 6.427899e+01 8.453924e-18) (7.861662e-01 5.884162e-02 -5.063783e-20) (0.000000e+00 0.000000e+00 0.000000e+00)) ((-9.641848e+00 -6.976643e-01 1.250765e+01) (-8.826242e-03 1.179249e-01 9.307762e-03) (0.000000e+00 0.000000e+00 0.000000e+00))
62           	((-4.658671e+00 6.435197e+01 8.468499e-18) (7.857182e-01 5.907577e-02 -5.092971e-20) (0.000000e+00 0.000000e+00 0.000000e+00)) ((-9.652796e+00 -6.988006e-01 1.246625e+01) (-8.861365e-03 1.178577e-01 9.281700e-03) (0.000000e+00 0.000000e+00 0.000000e+00))
63           	((-4.732980e+00 6.443406e+01 8.605513e-18) (7.851146e-01 5.925692e-02 -5.123833e-20) (0.000000e+00 0.000000e+00 0.000000e+00)) ((-9.665110e+00 -7.099470e-01 1.242782e+01) (-8.888539e-03 1.177672e-01 9.262953e-03) (0.000000e+00 0.000000e+00 0.000000e+00))
64           	((-4.807986e+00 6.462343e+01 8.731734e-18) (7.844485e-01 5.943862e-02 -5.182826e-20) (0.000000e+00 0.000000e+00 0.000000e+00)) ((-9.693515e+00 -7.211978e-01 1.243952e+01) (-8.915793e-03 1.176673e-01 9.260453e-03) (0.000000e+00 0.000000e+00 0.000000e+00))
65           	((-4.865069e+00 6.487006e+01 8.834354e-18) (7.837656e-01 5.952203e-02 -5.202768e-20) (0.000000e+00 0.000000e+00 0.000000e+00)) ((-9.730509e+00 -7.297603e-01 1.250698e+01) (-8.928304e-03 1.175648e-01 9.247042e-03) (0.000000e+00 0.000000e+00 0.000000e+00))
66           	((-4.906861e+00 6.508592e+01 8.916869e-18) (7.831392e-01 5.971648e-02 -5.246336e-20) (0.000000e+00 0.000000e+00 0.000000e+00)) ((-9.762888e+00 -7.360292e-01 1.258585e+01) (-8.957471e-03 1.174709e-01 9.240706e-03) (0.000000e+00 0.000000e+00 0.000000e+00))
67           	((-4.922966e+00 6.539258e+01 8.935742e-18) (7.825831e-01 5.983799e-02 -5.243033e-20) (0.000000e+00 0.000000e+00 0.000000e+00)) ((-9.808886e+00 -7.384449e-01 1.271352e+01) (-8.975699e-03 1.173875e-01 9.221372e-03) (0.000000e+00 0.000000e+00 0.000000e+00))
68           	((-4.983131e+00 6.567884e+01 9.050022e-18) (7.820366e-01 6.010427e-02 -5.296003e-20) (0.000000e+00 0.000000e+00 0.000000e+00)) ((-9.851827e+00 -7.474696e-01 1.282317e+01) (-9.015640e-03 1.173055e-01 9.206170e-03) (0.000000e+00 0.000000e+00 0.000000e+00))
69           	((-5.033027e+00 6.596256e+01 9.156423e-18) (7.815031e-01 6.017786e-02 -5.308744e-20) (0.000000e+00 0.000000e+00 0.000000e+00)) ((-9.894384e+00 -7.549540e-01 1.292050e+01) (-9.026678e-03 1.172255e-01 9.172780e-03) (0.000000e+00 0.000000e+00 0.000000e+00))
70           	((-5.065218e+00 6.623792e+01 9.237707e-18) (7.809700e-01 6.032674e-02 -5.353129e-20) (0.000000e+00 0.000000e+00 0.000000e+00)) ((-9.935688e+00 -7.597827e-01 1.300815e+01) (-9.049011e-03 1.171455e-01 9.142354e-03) (0.000000e+00 0.000000e+00 0.000000e+00))
71           	((-5.095557e+00 6.638121e+01 9.307729e-18) (7.804391e-01 6.037439e-02 -5.355807e-20) (0.000000e+00 0.000000e+00 0.000000e+00)) ((-9.957181e+00 -7.643335e-01 1.303860e+01) (-9.056159e-03 1.170659e-01 9.102393e-03) (0.000000e+00 0.000000e+00 0.000000e+00))
72           	((-5.135584e+00 6.650643e+01 9.382641e-18) (7.798850e-01 6.055126e-02 -5.398383e-20) (0.000000e+00 0.000000e+00 0.000000e+00)) ((-9.975964e+00 -7.703376e-01 1.305938e+01) (-9.082689e-03 1.169828e-01 9.083078e-03) (0.000000e+00 0.000000e+00 0.000000e+00))
73           	((-5.179251e+00 6.667680e+01 9.455394e-18) (7.793182e-01 6.064776e-02 -5.403948e-20) (0.000000e+00 0.000000e+00 0.000000e+00)) ((-1.000152e+01 -7.768877e-01 1.309667e+01) (-9.097164e-03 1.168977e-01 9.064324e-03) (0.000000e+00 0.000000e+00 0.000000e+00))
74           	((-5.199713e+00 6.683940e+01 9.465540e-18) (7.787525e-01 6.086688e-02 -5.436093e-20) (0.000000e+00 0.000000e+00 0.000000e+00)) ((-1.002591e+01 -7.799570e-01 1.313351e+01) (-9.130032e-03 1.168129e-01 9.060543e-03) (0.000000e+00 0.000000e+00 0.000000e+00))
75           	((-5.259453e+00 6.700759e+01 9.557060e-18) (7.781641e-01 6.098744e-02 -5.448890e-20) (0.000000e+00 0.000000e+00 0.000000e+00)) ((-1.005114e+01 -7.889179e-01 1.317222e+01) (-9.148116e-03 1.167246e-01 9.046632e-03) (0.000000e+00 0.000000e+00 0.000000e+00))
76           	((-5.295671e+00 6.718799e+01 9.640586e-18) (7.776208e-01 6.112842e-02 -5.492009e-20) (0.000000e+00 0.000000e+00 0.000000e+00)) ((-1.007820e+01 -7.943506e-01 1.321747e+01) (-9.169263e-03 1.166431e-01 9.039119e-03) (0.000000e+00 0.000000e+00 0.000000e+00))
77           	((-5.318343e+00 6.738514e+01 9.705945e-18) (7.771383e-01 6.113808e-02 -5.490071e-20) (0.000000e+00 0.000000e+00 0.000000e+00)) ((-1.010777e+01 -7.977515e-01 1.327329e+01) (-9.170711e-03 1.165708e-01 9.017584e-03) (0.000000e+00 0.000000e+00 0.000000e+00))
78           	((-5.345379e+00 6.749337e+01 9.766599e-18) (7.766942e-01 6.128514e-02 -5.529680e-20) (0.000000e+00 0.000000e+00 0.000000e+00)) ((-1.012401e+01 -8.018069e-01 1.329560e+01) (-9.192771e-03 1.165041e-01 9.007370e-03) (0.000000e+00 0.000000e+00 0.000000e+00))
79           	((-5.361139e+00 6.759106e+01 9.777951e-18) (7.762405e-01 6.135889e-02 -5.520126e-20) (0.000000e+00 0.000000e+00 0.000000e+00)) ((-1.013866e+01 -8.041708e-01 1.331530e+01) (-9.203834e-03 1.164361e-01 8.992182e-03) (0.000000e+00 0.000000e+00 0.000000e+00))
80           	((-5.414547e+00 6.771006e+01 9.865085e-18) (7.757326e-01 6.158936e-02 -5.571968e-20) (0.000000e+00 0.000000e+00 0.000000e+00)) ((-1.015651e+01 -8.121820e-01 1.334312e+01) (-9.238404e-03 1.163599e-01 8.991039e-03) (0.000000e+00 0.000000e+00 0.000000e+00))
81           	((-5.457158e+00 6.788280e+01 9.941200e-18) (7.752315e-01 6.163414e-02 -5.575273e-20) (0.000000e+00 0.000000e+00 0.000000e+00)) ((-1.018242e+01 -8.185738e-01 1.339340e+01) (-9.245121e-03 1.162847e-01 8.975285e-03) (0.000000e+00 0.000000e+00 0.000000e+00))
82           	((-5.483399e+00 6.802338e+01 9.999589e-18) (7.747593e-01 6.176711e-02 -5.615376e-20) (0.000000e+00 0.000000e+00 0.000000e+00)) ((-1.020351e+01 -8.225098e-01 1.343400e+01) (-9.265066e-03 1.162139e-01 8.962953e-03) (0.000000e+00 0.000000e+00 0.000000e+00))
83           	((-5.500187e+00 6.815406e+01 1.004569e-17) (7.743365e-01 6.177563e-02 -5.606441e-20) (0.000000e+00 0.000000e+00 0.000000e+00)) ((-1.022311e+01 -8.250280e-01 1.347446e+01) (-9.266345e-03 1.161505e-01 8.936666e-03) (0.000000e+00 0.000000e+00 0.000000e+00))
84           	((-5.520646e+00 6.827938e+01 1.009230e-17) (7.739454e-01 6.192230e-02 -5.642873e-20) (0.000000e+00 0.000000e+00 0.000000e+00)) ((-1.024191e+01 -8.280969e-01 1.351209e+01) (-9.288345e-03 1.160918e-01 8.924402e-03) (0.000000e+00 0.000000e+00 0.000000e+00))
85           	((-5.545220e+00 6.839534e+01 1.014087e-17) (7.735682e-01 6.197479e-02 -5.636038e-20) (0.000000e+00 0.000000e+00 0.000000e+00)) ((-1.025930e+01 -8.317830e-01 1.354310e+01) (-9.296218e-03 1.160352e-01 8.905915e-03) (0.000000e+00 0.000000e+00 0.000000e+00))
86           	((-5.577052e+00 6.851460e+01 1.019220e-17) (7.731821e-01 6.214664e-02 -5.677672e-20) (0.000000e+00 0.000000e+00 0.000000e+00)) ((-1.027719e+01 -8.365578e-01 1.357170e+01) (-9.321995e-03 1.159773e-01 8.900136e-03) (0.000000e+00 0.000000e+00 0.000000e+00))
87           	((-5.595321e+00 6.859317e+01 1.023226e-17) (7.728059e-01 6.218382e-02 -5.667751e-20) (0.000000e+00 0.000000e+00 0.000000e+00)) ((-1.028898e+01 -8.392981e-01 1.358551e+01) (-9.327572e-03 1.159209e-01 8.880452e-03) (0.000000e+00 0.000000e+00 0.000000e+00))
88           	((-5.616666e+00 6.868436e+01 1.027250e-17) (7.724461e-01 6.231409e-02 -5.704411e-20) (0.000000e+00 0.000000e+00 0.000000e+00)) ((-1.030265e+01 -8.424998e-01 1.360562e+01) (-9.347113e-03 1.158669e-01 8.868795e-03) (0.000000e+00 0.000000e+00 0.000000e+00))
89           	((-5.640433e+00 6.877325e+01 1.031246e-17) (7.721093e-01 6.231743e-02 -5.694596e-20) (0.000000e+00 0.000000e+00 0.000000e+00)) ((-1.031599e+01 -8.460650e-01 1.362783e+01) (-9.347614e-03 1.158164e-01 8.844976e-03) (0.000000e+00 0.000000e+00 0.000000e+00))
90           	((-5.664626e+00 6.885038e+01 1.035288e-17) (7.717794e-01 6.244629e-02 -5.731464e-20) (0.000000e+00 0.000000e+00 0.000000e+00)) ((-1.032756e+01 -8.496939e-01 1.364608e+01) (-9.366943e-03 1.157669e-01 8.834836e-03) (0.000000e+00 0.000000e+00 0.000000e+00))
91           	((-5.683804e+00 6.893666e+01 1.038914e-17) (7.714662e-01 6.245944e-02 -5.720068e-20) (0.000000e+00 0.000000e+00 0.000000e+00)) ((-1.034050e+01 -8.525706e-01 1.366878e+01) (-9.368915e-03 1.157199e-01 8.815650e-03) (0.000000e+00 0.000000e+00 0.000000e+00))
92           	((-5.700981e+00 6.902946e+01 1.042321e-17) (7.711705e-01 6.259217e-02 -5.755570e-20) (0.000000e+00 0.000000e+00 0.000000e+00)) ((-1.035442e+01 -8.551472e-01 1.369413e+01) (-9.388825e-03 1.156756e-01 8.807321e-03) (0.000000e+00 0.000000e+00 0.000000e+00))
93           	((-5.717084e+00 6.911779e+01 1.045567e-17) (7.708997e-01 6.259732e-02 -5.743067e-20) (0.000000e+00 0.000000e+00 0.000000e+00)) ((-1.036767e+01 -8.575626e-01 1.371839e+01) (-9.389598e-03 1.156350e-01 8.785077e-03) (0.000000e+00 0.000000e+00 0.000000e+00))
94           	((-5.735418e+00 6.919520e+01 1.048881e-17) (7.706423e-01 6.271651e-02 -5.778812e-20) (0.000000e+00 0.000000e+00 0.000000e+00)) ((-1.037928e+01 -8.603127e-01 1.373773e+01) (-9.407477e-03 1.155964e-01 8.772381e-03) (0.000000e+00 0.000000e+00 0.000000e+00))
95           	((-5.752844e+00 6.926133e+01 1.051891e-17) (7.704001e-01 6.270973e-02 -5.765774e-20) (0.000000e+00 0.000000e+00 0.000000e+00)) ((-1.038920e+01 -8.629265e-01 1.375310e+01) (-9.406460e-03 1.155600e-01 8.747988e-03) (0.000000e+00 0.000000e+00 0.000000e+00))
96           	((-5.773380e+00 6.931288e+01 1.054942e-17) (7.701593e-01 6.282367e-02 -5.801684e-20) (0.000000e+00 0.000000e+00 0.000000e+00)) ((-1.039693e+01 -8.660071e-01 1.376305e+01) (-9.423550e-03 1.155239e-01 8.736189e-03) (0.000000e+00 0.000000e+00 0.000000e+00))
97           	((-5.786794e+00 6.936378e+01 1.057444e-17) (7.699328e-01 6.281416e-02 -5.786241e-20) (0.000000e+00 0.000000e+00 0.000000e+00)) ((-1.040457e+01 -8.680191e-01 1.377556e+01) (-9.422124e-03 1.154899e-01 8.713658e-03) (0.000000e+00 0.000000e+00 0.000000e+00))
98           	((-5.796550e+00 6.941532e+01 1.059729e-17) (7.697270e-01 6.292336e-02 -5.817799e-20) (0.000000e+00 0.000000e+00 0.000000e+00)) ((-1.041230e+01 -8.694825e-01 1.378955e+01) (-9.438504e-03 1.154591e-01 8.702226e-03) (0.000000e+00 0.000000e+00 0.000000e+00))
99           	((-5.801255e+00 6.948404e+01 1.060085e-17) (7.695501e-01 6.290614e-02 -5.797299e-20) (0.000000e+00 0.000000e+00 0.000000e+00)) ((-1.042261e+01 -8.701883e-01 1.381159e+01) (-9.435921e-03 1.154325e-01 8.677851e-03) (0.000000e+00 0.000000e+00 0.000000e+00))
100          	((-5.822451e+00 6.955363e+01 1.063499e-17) (7.693713e-01 6.302078e-02 -5.833905e-20) (0.000000e+00 0.000000e+00 0.000000e+00)) ((-1.043304e+01 -8.733677e-01 1.383207e+01) (-9.453117e-03 1.154057e-01 8.664226e-03) (0.000000e+00 0.000000e+00 0.000000e+00))
101          	((-5.843003e+00 6.962862e+01 1.066677e-17) (7.692010e-01 6.298698e-02 -5.820410e-20) (0.000000e+00 0.000000e+00 0.000000e+00)) ((-1.044429e+01 -8.764504e-01 1.385350e+01) (-9.448047e-03 1.153801e-01 8.638509e-03) (0.000000e+00 0.000000e+00 0.000000e+00))
102          	((-5.853702e+00 6.967500e+01 1.068966e-17) (7.690390e-01 6.307502e-02 -5.852714e-20) (0.000000e+00 0.000000e+00 0.000000e+00)) ((-1.045125e+01 -8.780553e-01 1.386307e+01) (-9.461253e-03 1.153559e-01 8.624063e-03) (0.000000e+00 0.000000e+00 0.000000e+00))
103          	((-5.857312e+00 6.969831e+01 1.070482e-17) (7.689081e-01 6.303833e-02 -5.831881e-20) (0.000000e+00 0.000000e+00 0.000000e+00)) ((-1.045475e+01 -8.785967e-01 1.386595e+01) (-9.455750e-03 1.153362e-01 8.598284e-03) (0.000000e+00 0.000000e+00 0.000000e+00))
104          	((-5.866758e+00 6.972158e+01 1.072244e-17) (7.687944e-01 6.313162e-02 -5.862634e-20) (0.000000e+00 0.000000e+00 0.000000e+00)) ((-1.045824e+01 -8.800138e-01 1.387015e+01) (-9.469743e-03 1.153192e-01 8.585520e-03) (0.000000e+00 0.000000e+00 0.000000e+00))
105          	((-5.878265e+00 6.975451e+01 1.074184e-17) (7.686897e-01 6.310731e-02 -5.844717e-20) (0.000000e+00 0.000000e+00 0.000000e+00)) ((-1.046318e+01 -8.817398e-01 1.387953e+01) (-9.466097e-03 1.153035e-01 8.562189e-03) (0.000000e+00 0.000000e+00 0.000000e+00))
106          	((-5.889203e+00 6.980408e+01 1.076089e-17) (7.685806e-01 6.320568e-02 -5.877013e-20) (0.000000e+00 0.000000e+00 0.000000e+00)) ((-1.047061e+01 -8.833804e-01 1.389532e+01) (-9.480852e-03 1.152871e-01 8.550317e-03) (0.000000e+00 0.000000e+00 0.000000e+00))
107          	((-5.892202e+00 6.986281e+01 1.076430e-17) (7.684848e-01 6.317173e-02 -5.855544e-20) (0.000000e+00 0.000000e+00 0.000000e+00)) ((-1.047942e+01 -8.838304e-01 1.391565e+01) (-9.475760e-03 1.152727e-01 8.524764e-03) (0.000000e+00 0.000000e+00 0.000000e+00))
108          	((-5.904010e+00 6.990900e+01 1.078477e-17) (7.683922e-01 6.325983e-02 -5.888025e-20) (0.000000e+00 0.000000e+00 0.000000e+00)) ((-1.048635e+01 -8.856014e-01 1.392936e+01) (-9.488975e-03 1.152588e-01 8.509418e-03) (0.000000e+00 0.000000e+00 0.000000e+00))
109          	((-5.914000e+00 6.994540e+01 1.080267e-17) (7.683193e-01 6.320452e-02 -5.868565e-20) (0.000000e+00 0.000000e+00 0.000000e+00)) ((-1.049181e+01 -8.870999e-01 1.393875e+01) (-9.480678e-03 1.152479e-01 8.482290e-03) (0.000000e+00 0.000000e+00 0.000000e+00))
110          	((-5.924130e+00 6.997536e+01 1.081845e-17) (7.682522e-01 6.327565e-02 -5.899684e-20) (0.000000e+00 0.000000e+00 0.000000e+00)) ((-1.049630e+01 -8.886196e-01 1.394531e+01) (-9.491348e-03 1.152378e-01 8.468212e-03) (0.000000e+00 0.000000e+00 0.000000e+00))