# vtk DataFile Version 2.0
upperWall
ASCII
DATASET POLYDATA
POINTS 402 float
-0.06 0.06 -0.005 -0.06 0.06 0.005 -0.0583378 0.06 0.005 -0.0583378 0.06
-0.005 -0.0566989 0.06 0.005 -0.0566989 0.06 -0.005 -0.0550831 0.06 0.005
-0.0550831 0.06 -0.005 -0.05349 0.06 0.005 -0.05349 0.06 -0.005 -0.0519192
0.06 0.005 -0.0519192 0.06 -0.005 -0.0503705 0.06 0.005 -0.0503705 0.06
-0.005 -0.0488435 0.06 0.005 -0.0488435 0.06 -0.005 -0.047338 0.06 0.005
-0.047338 0.06 -0.005 -0.0458537 0.06 0.005 -0.0458537 0.06 -0.005 -0.0443902
0.06 0.005 -0.0443902 0.06 -0.005 -0.0429472 0.06 0.005 -0.0429472 0.06
-0.005 -0.0415246 0.06 0.005 -0.0415246 0.06 -0.005 -0.0401219 0.06 0.005
-0.0401219 0.06 -0.005 -0.0387389 0.06 0.005 -0.0387389 0.06 -0.005 -0.0373753
0.06 0.005 -0.0373753 0.06 -0.005 -0.0360309 0.06 0.005 -0.0360309 0.06
-0.005 -0.0347054 0.06 0.005 -0.0347054 0.06 -0.005 -0.0333985 0.06 0.005
-0.0333985 0.06 -0.005 -0.0321099 0.06 0.005 -0.0321099 0.06 -0.005 -0.0308395
0.06 0.005 -0.0308395 0.06 -0.005 -0.0295868 0.06 0.005 -0.0295868 0.06
-0.005 -0.0283518 0.06 0.005 -0.0283518 0.06 -0.005 -0.0271342 0.06 0.005
-0.0271342 0.06 -0.005 -0.0259336 0.06 0.005 -0.0259336 0.06 -0.005 -0.0247499
0.06 0.005 -0.0247499 0.06 -0.005 -0.0235828 0.06 0.005 -0.0235828 0.06
-0.005 -0.0224322 0.06 0.005 -0.0224322 0.06 -0.005 -0.0212976 0.06 0.005
-0.0212976 0.06 -0.005 -0.0201791 0.06 0.005 -0.0201791 0.06 -0.005 -0.0190762
0.06 0.005 -0.0190762 0.06 -0.005 -0.0179888 0.06 0.005 -0.0179888 0.06
-0.005 -0.0169167 0.06 0.005 -0.0169167 0.06 -0.005 -0.0158597 0.06 0.005
-0.0158597 0.06 -0.005 -0.0148175 0.06 0.005 -0.0148175 0.06 -0.005 -0.0137899
0.06 0.005 -0.0137899 0.06 -0.005 -0.0127768 0.06 0.005 -0.0127768 0.06
-0.005 -0.0117779 0.06 0.005 -0.0117779 0.06 -0.005 -0.010793 0.06 0.005
-0.010793 0.06 -0.005 -0.00982198 0.06 0.005 -0.00982198 0.06 -0.005 -0.00886459
0.06 0.005 -0.00886459 0.06 -0.005 -0.00792065 0.06 0.005 -0.00792065 0.06
-0.005 -0.00698996 0.06 0.005 -0.00698996 0.06 -0.005 -0.00607235 0.06 0.005
-0.00607235 0.06 -0.005 -0.00516763 0.06 0.005 -0.00516763 0.06 -0.005 -0.00427561
0.06 0.005 -0.00427561 0.06 -0.005 -0.00339613 0.06 0.005 -0.00339613 0.06
-0.005 -0.002529 0.06 0.005 -0.002529 0.06 -0.005 -0.00167405 0.06 0.005
-0.00167405 0.06 -0.005 -0.000831103 0.06 0.005 -0.000831103 0.06 -0.005 0
0.06 0.005 0 0.06 -0.005 0.00109789 0.06 0.005 0.00109789 0.06
-0.005 0.0022039 0.06 0.005 0.0022039 0.06 -0.005 0.00331809 0.06 0.005
0.00331809 0.06 -0.005 0.00444053 0.06 0.005 0.00444053 0.06 -0.005 0.00557128
0.06 0.005 0.00557128 0.06 -0.005 0.0067104 0.06 0.005 0.0067104 0.06
-0.005 0.00785794 0.06 0.005 0.00785794 0.06 -0.005 0.00901398 0.06 0.005
0.00901398 0.06 -0.005 0.0101786 0.06 0.005 0.0101786 0.06 -0.005 0.0113518
0.06 0.005 0.0113518 0.06 -0.005 0.0125337 0.06 0.005 0.0125337 0.06
-0.005 0.0137243 0.06 0.005 0.0137243 0.06 -0.005 0.0149238 0.06 0.005
0.0149238 0.06 -0.005 0.0161321 0.06 0.005 0.0161321 0.06 -0.005 0.0173494
0.06 0.005 0.0173494 0.06 -0.005 0.0185757 0.06 0.005 0.0185757 0.06
-0.005 0.019811 0.06 0.005 0.019811 0.06 -0.005 0.0210555 0.06 0.005
0.0210555 0.06 -0.005 0.0223092 0.06 0.005 0.0223092 0.06 -0.005 0.0235722
0.06 0.005 0.0235722 0.06 -0.005 0.0248445 0.06 0.005 0.0248445 0.06
-0.005 0.0261263 0.06 0.005 0.0261263 0.06 -0.005 0.0274175 0.06 0.005
0.0274175 0.06 -0.005 0.0287183 0.06 0.005 0.0287183 0.06 -0.005 0.0300287
0.06 0.005 0.0300287 0.06 -0.005 0.0313488 0.06 0.005 0.0313488 0.06
-0.005 0.0326787 0.06 0.005 0.0326787 0.06 -0.005 0.0340184 0.06 0.005
0.0340184 0.06 -0.005 0.0353681 0.06 0.005 0.0353681 0.06 -0.005 0.0367277
0.06 0.005 0.0367277 0.06 -0.005 0.0380974 0.06 0.005 0.0380974 0.06
-0.005 0.0394772 0.06 0.005 0.0394772 0.06 -0.005 0.0408672 0.06 0.005
0.0408672 0.06 -0.005 0.0422676 0.06 0.005 0.0422676 0.06 -0.005 0.0436783
0.06 0.005 0.0436783 0.06 -0.005 0.0450994 0.06 0.005 0.0450994 0.06
-0.005 0.046531 0.06 0.005 0.046531 0.06 -0.005 0.0479733 0.06 0.005
0.0479733 0.06 -0.005 0.0494262 0.06 0.005 0.0494262 0.06 -0.005 0.0508898
0.06 0.005 0.0508898 0.06 -0.005 0.0523643 0.06 0.005 0.0523643 0.06
-0.005 0.0538497 0.06 0.005 0.0538497 0.06 -0.005 0.0553461 0.06 0.005
0.0553461 0.06 -0.005 0.0568536 0.06 0.005 0.0568536 0.06 -0.005 0.0583722
0.06 0.005 0.0583722 0.06 -0.005 0.0599021 0.06 0.005 0.0599021 0.06
-0.005 0.0614433 0.06 0.005 0.0614433 0.06 -0.005 0.0629959 0.06 0.005
0.0629959 0.06 -0.005 0.06456 0.06 0.005 0.06456 0.06 -0.005 0.0661356
0.06 0.005 0.0661356 0.06 -0.005 0.067723 0.06 0.005 0.067723 0.06
-0.005 0.069322 0.06 0.005 0.069322 0.06 -0.005 0.0709329 0.06 0.005
0.0709329 0.06 -0.005 0.0725558 0.06 0.005 0.0725558 0.06 -0.005 0.0741906
0.06 0.005 0.0741906 0.06 -0.005 0.0758375 0.06 0.005 0.0758375 0.06
-0.005 0.0774966 0.06 0.005 0.0774966 0.06 -0.005 0.079168 0.06 0.005
0.079168 0.06 -0.005 0.0808518 0.06 0.005 0.0808518 0.06 -0.005 0.082548
0.06 0.005 0.082548 0.06 -0.005 0.0842568 0.06 0.005 0.0842568 0.06
-0.005 0.0859782 0.06 0.005 0.0859782 0.06 -0.005 0.0877124 0.06 0.005
0.0877124 0.06 -0.005 0.0894594 0.06 0.005 0.0894594 0.06 -0.005 0.0912193
0.06 0.005 0.0912193 0.06 -0.005 0.0929923 0.06 0.005 0.0929923 0.06
-0.005 0.0947784 0.06 0.005 0.0947784 0.06 -0.005 0.0965777 0.06 0.005
0.0965777 0.06 -0.005 0.0983903 0.06 0.005 0.0983903 0.06 -0.005 0.100216
0.06 0.005 0.100216 0.06 -0.005 0.102056 0.06 0.005 0.102056 0.06
-0.005 0.103909 0.06 0.005 0.103909 0.06 -0.005 0.105776 0.06 0.005
0.105776 0.06 -0.005 0.107657 0.06 0.005 0.107657 0.06 -0.005 0.109551
0.06 0.005 0.109551 0.06 -0.005 0.11146 0.06 0.005 0.11146 0.06
-0.005 0.113382 0.06 0.005 0.113382 0.06 -0.005 0.115319 0.06 0.005
0.115319 0.06 -0.005 0.117271 0.06 0.005 0.117271 0.06 -0.005 0.119236
0.06 0.005 0.119236 0.06 -0.005 0.121217 0.06 0.005 0.121217 0.06
-0.005 0.123212 0.06 0.005 0.123212 0.06 -0.005 0.125221 0.06 0.005
0.125221 0.06 -0.005 0.127246 0.06 0.005 0.127246 0.06 -0.005 0.129286
0.06 0.005 0.129286 0.06 -0.005 0.13134 0.06 0.005 0.13134 0.06
-0.005 0.13341 0.06 0.005 0.13341 0.06 -0.005 0.135495 0.06 0.005
0.135495 0.06 -0.005 0.137596 0.06 0.005 0.137596 0.06 -0.005 0.139712
0.06 0.005 0.139712 0.06 -0.005 0.141844 0.06 0.005 0.141844 0.06
-0.005 0.143992 0.06 0.005 0.143992 0.06 -0.005 0.146155 0.06 0.005
0.146155 0.06 -0.005 0.148335 0.06 0.005 0.148335 0.06 -0.005 0.15053
0.06 0.005 0.15053 0.06 -0.005 0.152742 0.06 0.005 0.152742 0.06
-0.005 0.15497 0.06 0.005 0.15497 0.06 -0.005 0.157215 0.06 0.005
0.157215 0.06 -0.005 0.159476 0.06 0.005 0.159476 0.06 -0.005 0.161754
0.06 0.005 0.161754 0.06 -0.005 0.164049 0.06 0.005 0.164049 0.06
-0.005 0.166361 0.06 0.005 0.166361 0.06 -0.005 0.16869 0.06 0.005
0.16869 0.06 -0.005 0.171037 0.06 0.005 0.171037 0.06 -0.005 0.1734
0.06 0.005 0.1734 0.06 -0.005 0.175781 0.06 0.005 0.175781 0.06
-0.005 0.17818 0.06 0.005 0.17818 0.06 -0.005 0.180597 0.06 0.005
0.180597 0.06 -0.005 0.183031 0.06 0.005 0.183031 0.06 -0.005 0.185483
0.06 0.005 0.185483 0.06 -0.005 0.187954 0.06 0.005 0.187954 0.06
-0.005 0.190443 0.06 0.005 0.190443 0.06 -0.005 0.19295 0.06 0.005
0.19295 0.06 -0.005 0.195476 0.06 0.005 0.195476 0.06 -0.005 0.19802
0.06 0.005 0.19802 0.06 -0.005 0.200584 0.06 0.005 0.200584 0.06
-0.005 0.203166 0.06 0.005 0.203166 0.06 -0.005 0.205767 0.06 0.005
0.205767 0.06 -0.005 0.208388 0.06 0.005 0.208388 0.06 -0.005 0.211028
0.06 0.005 0.211028 0.06 -0.005 0.213688 0.06 0.005 0.213688 0.06
-0.005 0.216367 0.06 0.005 0.216367 0.06 -0.005 0.219066 0.06 0.005
0.219066 0.06 -0.005 0.221785 0.06 0.005 0.221785 0.06 -0.005 0.224524
0.06 0.005 0.224524 0.06 -0.005 0.227284 0.06 0.005 0.227284 0.06
-0.005 0.230064 0.06 0.005 0.230064 0.06 -0.005 0.232864 0.06 0.005
0.232864 0.06 -0.005 0.235686 0.06 0.005 0.235686 0.06 -0.005 0.238528
0.06 0.005 0.238528 0.06 -0.005 0.241391 0.06 0.005 0.241391 0.06
-0.005 0.244275 0.06 0.005 0.244275 0.06 -0.005 0.247181 0.06 0.005
0.247181 0.06 -0.005 0.250108 0.06 0.005 0.250108 0.06 -0.005 0.253057
0.06 0.005 0.253057 0.06 -0.005 0.256027 0.06 0.005 0.256027 0.06
-0.005 0.25902 0.06 0.005 0.25902 0.06 -0.005 0.262035 0.06 0.005
0.262035 0.06 -0.005 0.265072 0.06 0.005 0.265072 0.06 -0.005 0.268131
0.06 0.005 0.268131 0.06 -0.005 0.271213 0.06 0.005 0.271213 0.06
-0.005 0.274318 0.06 0.005 0.274318 0.06 -0.005 0.277446 0.06 0.005
0.277446 0.06 -0.005 0.280597 0.06 0.005 0.280597 0.06 -0.005 0.283772
0.06 0.005 0.283772 0.06 -0.005 0.28697 0.06 0.005 0.28697 0.06
-0.005 0.290191 0.06 0.005 0.290191 0.06 -0.005 0.293437 0.06 0.005
0.293437 0.06 -0.005 0.296706 0.06 0.005 0.296706 0.06 -0.005 0.3
0.06 0.005 0.3 0.06 -0.005 
POLYGONS 200 1000
4 0 1 2 3 4 3 2 4 5 4
5 4 6 7 4 7 6 8 9 4
9 8 10 11 4 11 10 12 13 4
13 12 14 15 4 15 14 16 17 4
17 16 18 19 4 19 18 20 21 4
21 20 22 23 4 23 22 24 25 4
25 24 26 27 4 27 26 28 29 4
29 28 30 31 4 31 30 32 33 4
33 32 34 35 4 35 34 36 37 4
37 36 38 39 4 39 38 40 41 4
41 40 42 43 4 43 42 44 45 4
45 44 46 47 4 47 46 48 49 4
49 48 50 51 4 51 50 52 53 4
53 52 54 55 4 55 54 56 57 4
57 56 58 59 4 59 58 60 61 4
61 60 62 63 4 63 62 64 65 4
65 64 66 67 4 67 66 68 69 4
69 68 70 71 4 71 70 72 73 4
73 72 74 75 4 75 74 76 77 4
77 76 78 79 4 79 78 80 81 4
81 80 82 83 4 83 82 84 85 4
85 84 86 87 4 87 86 88 89 4
89 88 90 91 4 91 90 92 93 4
93 92 94 95 4 95 94 96 97 4
97 96 98 99 4 99 98 100 101 4
101 100 102 103 4 103 102 104 105 4
105 104 106 107 4 107 106 108 109 4
109 108 110 111 4 111 110 112 113 4
113 112 114 115 4 115 114 116 117 4
117 116 118 119 4 119 118 120 121 4
121 120 122 123 4 123 122 124 125 4
125 124 126 127 4 127 126 128 129 4
129 128 130 131 4 131 130 132 133 4
133 132 134 135 4 135 134 136 137 4
137 136 138 139 4 139 138 140 141 4
141 140 142 143 4 143 142 144 145 4
145 144 146 147 4 147 146 148 149 4
149 148 150 151 4 151 150 152 153 4
153 152 154 155 4 155 154 156 157 4
157 156 158 159 4 159 158 160 161 4
161 160 162 163 4 163 162 164 165 4
165 164 166 167 4 167 166 168 169 4
169 168 170 171 4 171 170 172 173 4
173 172 174 175 4 175 174 176 177 4
177 176 178 179 4 179 178 180 181 4
181 180 182 183 4 183 182 184 185 4
185 184 186 187 4 187 186 188 189 4
189 188 190 191 4 191 190 192 193 4
193 192 194 195 4 195 194 196 197 4
197 196 198 199 4 199 198 200 201 4
201 200 202 203 4 203 202 204 205 4
205 204 206 207 4 207 206 208 209 4
209 208 210 211 4 211 210 212 213 4
213 212 214 215 4 215 214 216 217 4
217 216 218 219 4 219 218 220 221 4
221 220 222 223 4 223 222 224 225 4
225 224 226 227 4 227 226 228 229 4
229 228 230 231 4 231 230 232 233 4
233 232 234 235 4 235 234 236 237 4
237 236 238 239 4 239 238 240 241 4
241 240 242 243 4 243 242 244 245 4
245 244 246 247 4 247 246 248 249 4
249 248 250 251 4 251 250 252 253 4
253 252 254 255 4 255 254 256 257 4
257 256 258 259 4 259 258 260 261 4
261 260 262 263 4 263 262 264 265 4
265 264 266 267 4 267 266 268 269 4
269 268 270 271 4 271 270 272 273 4
273 272 274 275 4 275 274 276 277 4
277 276 278 279 4 279 278 280 281 4
281 280 282 283 4 283 282 284 285 4
285 284 286 287 4 287 286 288 289 4
289 288 290 291 4 291 290 292 293 4
293 292 294 295 4 295 294 296 297 4
297 296 298 299 4 299 298 300 301 4
301 300 302 303 4 303 302 304 305 4
305 304 306 307 4 307 306 308 309 4
309 308 310 311 4 311 310 312 313 4
313 312 314 315 4 315 314 316 317 4
317 316 318 319 4 319 318 320 321 4
321 320 322 323 4 323 322 324 325 4
325 324 326 327 4 327 326 328 329 4
329 328 330 331 4 331 330 332 333 4
333 332 334 335 4 335 334 336 337 4
337 336 338 339 4 339 338 340 341 4
341 340 342 343 4 343 342 344 345 4
345 344 346 347 4 347 346 348 349 4
349 348 350 351 4 351 350 352 353 4
353 352 354 355 4 355 354 356 357 4
357 356 358 359 4 359 358 360 361 4
361 360 362 363 4 363 362 364 365 4
365 364 366 367 4 367 366 368 369 4
369 368 370 371 4 371 370 372 373 4
373 372 374 375 4 375 374 376 377 4
377 376 378 379 4 379 378 380 381 4
381 380 382 383 4 383 382 384 385 4
385 384 386 387 4 387 386 388 389 4
389 388 390 391 4 391 390 392 393 4
393 392 394 395 4 395 394 396 397 4
397 396 398 399 4 399 398 400 401 
CELL_DATA 200
FIELD attributes 6
patchID 1 200 float
3 3 3 3 3 3 3 3 3 3 3
3 3 3 3 3 3 3 3 3 3
3 3 3 3 3 3 3 3 3 3
3 3 3 3 3 3 3 3 3 3
3 3 3 3 3 3 3 3 3 3
3 3 3 3 3 3 3 3 3 3
3 3 3 3 3 3 3 3 3 3
3 3 3 3 3 3 3 3 3 3
3 3 3 3 3 3 3 3 3 3
3 3 3 3 3 3 3 3 3 3
3 3 3 3 3 3 3 3 3 3
3 3 3 3 3 3 3 3 3 3
3 3 3 3 3 3 3 3 3 3
3 3 3 3 3 3 3 3 3 3
3 3 3 3 3 3 3 3 3 3
3 3 3 3 3 3 3 3 3 3
3 3 3 3 3 3 3 3 3 3
3 3 3 3 3 3 3 3 3 3
3 3 3 3 3 3 3 3 3 3
3 3 3 3 3 3 3 3 3 
p 1 200 float
-8.44971 -8.99063 -9.40794 -9.5849 -9.67591 -9.75663 -9.82254 -9.87003 -9.90613 -9.93598 -9.96118
-9.98262 -10.0013 -10.0179 -10.0329 -10.0466 -10.0593 -10.0712 -10.0823 -10.0929 -10.1029
-10.1124 -10.1216 -10.1303 -10.1387 -10.1467 -10.1544 -10.1618 -10.169 -10.1758 -10.1823
-10.1886 -10.1946 -10.2003 -10.2058 -10.211 -10.216 -10.2207 -10.2251 -10.2293 -10.2333
-10.237 -10.2405 -10.2438 -10.2468 -10.2496 -10.2522 -10.2546 -10.2567 -10.2587 -10.2605
-10.262 -10.2632 -10.264 -10.2643 -10.2642 -10.2636 -10.2626 -10.2609 -10.2587 -10.2559
-10.2525 -10.2484 -10.2436 -10.238 -10.2317 -10.2245 -10.2165 -10.2076 -10.1977 -10.1869
-10.175 -10.162 -10.1479 -10.1325 -10.116 -10.0981 -10.0788 -10.0582 -10.036 -10.0123
-9.98695 -9.95994 -9.93118 -9.90061 -9.86815 -9.83375 -9.79733 -9.75882 -9.71816 -9.67528
-9.63011 -9.5826 -9.53267 -9.48027 -9.42533 -9.36782 -9.30767 -9.24483 -9.17927 -9.11094
-9.03983 -8.96589 -8.88912 -8.80949 -8.72701 -8.64168 -8.55352 -8.46253 -8.36876 -8.27225
-8.17305 -8.07121 -7.9668 -7.85992 -7.75065 -7.63909 -7.52537 -7.40959 -7.2919 -7.17244
-7.05136 -6.92883 -6.80501 -6.68008 -6.55422 -6.42763 -6.30049 -6.17299 -6.04534 -5.91771
-5.79032 -5.66333 -5.53693 -5.41129 -5.28656 -5.16289 -5.0404 -4.91921 -4.79942 -4.68108
-4.56426 -4.44898 -4.33525 -4.22307 -4.11239 -4.00317 -3.89535 -3.78884 -3.68355 -3.5794
-3.47628 -3.37409 -3.27273 -3.17213 -3.07219 -2.97285 -2.87406 -2.77579 -2.67799 -2.58068
-2.48387 -2.38759 -2.29187 -2.19678 -2.1024 -2.00882 -1.91612 -1.82441 -1.73382 -1.64445
-1.55645 -1.46992 -1.385 -1.30182 -1.22051 -1.1412 -1.064 -0.989027 -0.916404 -0.846229
-0.778598 -0.713596 -0.651297 -0.591759 -0.535021 -0.481094 -0.429997 -0.381862 -0.336741 -0.294492
-0.254955 -0.21796 -0.183333 -0.150827 -0.120299 -0.0912908 -0.0640414 -0.0375663 -0.0121397 
nut 1 200 float
5.81613e-06 6.20327e-06 6.58039e-06 6.9442e-06 7.29384e-06 7.62966e-06 7.95204e-06 8.26124e-06 8.55752e-06 8.84111e-06 9.11229e-06
9.37132e-06 9.6185e-06 9.85411e-06 1.00785e-05 1.02919e-05 1.04948e-05 1.06875e-05 1.08702e-05 1.10434e-05 1.12075e-05
1.13627e-05 1.15094e-05 1.1648e-05 1.17788e-05 1.19021e-05 1.20183e-05 1.21277e-05 1.22306e-05 1.23273e-05 1.24182e-05
1.25034e-05 1.25833e-05 1.26581e-05 1.27281e-05 1.27935e-05 1.28547e-05 1.29117e-05 1.29648e-05 1.30142e-05 1.30602e-05
1.31029e-05 1.31424e-05 1.3179e-05 1.32128e-05 1.3244e-05 1.32727e-05 1.32991e-05 1.33232e-05 1.33453e-05 1.33685e-05
1.33924e-05 1.34138e-05 1.34326e-05 1.34488e-05 1.34626e-05 1.34739e-05 1.34828e-05 1.34893e-05 1.34934e-05 1.34953e-05
1.34949e-05 1.34923e-05 1.34876e-05 1.34807e-05 1.34718e-05 1.34608e-05 1.34479e-05 1.34329e-05 1.34161e-05 1.33974e-05
1.33769e-05 1.33546e-05 1.33305e-05 1.33047e-05 1.32772e-05 1.3248e-05 1.32172e-05 1.31848e-05 1.31508e-05 1.31152e-05
1.30781e-05 1.30394e-05 1.29992e-05 1.29576e-05 1.29144e-05 1.28698e-05 1.28237e-05 1.27761e-05 1.27272e-05 1.26767e-05
1.26249e-05 1.25716e-05 1.25169e-05 1.24608e-05 1.24033e-05 1.23444e-05 1.22841e-05 1.22224e-05 1.21594e-05 1.2095e-05
1.20292e-05 1.19622e-05 1.18939e-05 1.18244e-05 1.17537e-05 1.16818e-05 1.16089e-05 1.1535e-05 1.14601e-05 1.13845e-05
1.13081e-05 1.12311e-05 1.11536e-05 1.10758e-05 1.09978e-05 1.09198e-05 1.0842e-05 1.07645e-05 1.06875e-05 1.06113e-05
1.05361e-05 1.0462e-05 1.03892e-05 1.03181e-05 1.02487e-05 1.01812e-05 1.01158e-05 1.00527e-05 9.99193e-06 9.9336e-06
9.87778e-06 9.82448e-06 9.7737e-06 9.72538e-06 9.67944e-06 9.63577e-06 9.59421e-06 9.55457e-06 9.51666e-06 9.48024e-06
9.44506e-06 9.41087e-06 9.3774e-06 9.34437e-06 9.31153e-06 9.2786e-06 9.24536e-06 9.21156e-06 9.17699e-06 9.14147e-06
9.10483e-06 9.06693e-06 9.02765e-06 8.98692e-06 8.94467e-06 8.90088e-06 8.85556e-06 8.80871e-06 8.7604e-06 8.71069e-06
8.65969e-06 8.6075e-06 8.55424e-06 8.50007e-06 8.44513e-06 8.38957e-06 8.33357e-06 8.27729e-06 8.22088e-06 8.16453e-06
8.10838e-06 8.05259e-06 7.99732e-06 7.9427e-06 7.88887e-06 7.83596e-06 7.7841e-06 7.73339e-06 7.68394e-06 7.63585e-06
7.58922e-06 7.54412e-06 7.50063e-06 7.45881e-06 7.4187e-06 7.38033e-06 7.34365e-06 7.30872e-06 7.27545e-06 7.24374e-06
7.21354e-06 7.18479e-06 7.15747e-06 7.13157e-06 7.10692e-06 7.08376e-06 7.06089e-06 7.04247e-06 7.01076e-06 
k 1 200 float
0.205935 0.218576 0.231306 0.243979 0.256524 0.268912 0.281119 0.29312 0.304888 0.316401 0.327637
0.33858 0.349214 0.359525 0.369504 0.379142 0.388434 0.397375 0.405965 0.414204 0.422093
0.429635 0.436835 0.443698 0.450231 0.456442 0.462338 0.467928 0.473221 0.478226 0.482954
0.487414 0.491617 0.495571 0.499287 0.502776 0.506046 0.509107 0.51197 0.514642 0.517133
0.519451 0.521605 0.523604 0.525454 0.527164 0.52874 0.53019 0.531519 0.532738 0.53402
0.535343 0.536526 0.537568 0.53847 0.539234 0.539862 0.540356 0.540718 0.54095 0.541054
0.541033 0.540889 0.540624 0.540242 0.539745 0.539135 0.538415 0.537588 0.536655 0.53562
0.534485 0.533251 0.531923 0.530501 0.528987 0.527385 0.525696 0.523921 0.522063 0.520123
0.518103 0.516005 0.51383 0.511579 0.509254 0.506857 0.504387 0.501847 0.499237 0.496559
0.493814 0.491002 0.488125 0.485183 0.482178 0.479112 0.475984 0.472796 0.469551 0.46625
0.462894 0.459485 0.456027 0.452522 0.448973 0.445383 0.441756 0.438097 0.43441 0.4307
0.426973 0.423235 0.419493 0.415753 0.412024 0.408314 0.40463 0.400982 0.397377 0.393826
0.390337 0.38692 0.383581 0.380331 0.377176 0.374124 0.37118 0.368349 0.365636 0.363043
0.36057 0.358219 0.355987 0.35387 0.351865 0.349964 0.348161 0.346446 0.34481 0.343243
0.341733 0.340269 0.338839 0.337432 0.336036 0.33464 0.333233 0.331807 0.330352 0.32886
0.327325 0.325742 0.324106 0.322414 0.320665 0.318858 0.316993 0.315073 0.313099 0.311076
0.309007 0.306899 0.304756 0.302585 0.300392 0.298185 0.295968 0.29375 0.291537 0.289335
0.287151 0.284991 0.282859 0.280761 0.278703 0.276688 0.274721 0.272806 0.270946 0.269143
0.267402 0.265725 0.264112 0.262567 0.26109 0.259682 0.25834 0.257065 0.255855 0.254704
0.25361 0.252572 0.251588 0.250657 0.249772 0.248943 0.248125 0.247468 0.246339 
epsilon 1 200 float
45.5315 49.7877 54.1998 58.7146 63.3007 67.9412 72.6196 77.3189 82.0215 86.7109 91.3709
95.9866 100.544 105.03 109.432 113.742 117.949 122.045 126.023 129.879 133.607
137.204 140.667 143.995 147.187 150.243 153.164 155.95 158.603 161.126 163.521
165.792 167.94 169.97 171.886 173.69 175.387 176.981 178.476 179.875 181.182
182.402 183.537 184.593 185.572 186.478 187.315 188.085 188.793 189.442 190.127
190.833 191.465 192.023 192.506 192.915 193.252 193.516 193.71 193.834 193.889
193.877 193.799 193.657 193.451 193.183 192.855 192.468 192.024 191.523 190.968
190.361 189.701 188.991 188.233 187.427 186.575 185.677 184.737 183.753 182.728
181.664 180.559 179.417 178.238 177.022 175.772 174.487 173.168 171.817 170.434
169.021 167.577 166.104 164.603 163.074 161.518 159.937 158.331 156.702 155.05
153.377 151.684 149.973 148.246 146.504 144.749 142.983 141.21 139.43 137.647
135.864 134.084 132.31 130.546 128.794 127.06 125.346 123.656 121.995 120.366
118.773 117.22 115.71 114.246 112.831 111.468 110.159 108.906 107.709 106.569
105.486 104.46 103.489 102.571 101.703 100.883 100.106 99.3693 98.6678 97.9968
97.3513 96.7264 96.1168 95.5176 94.9238 94.3309 93.7344 93.1304 92.5152 91.8858
91.2396 90.5745 89.8888 89.1817 88.4526 87.7016 86.9291 86.1361 85.324 84.4945
83.6496 82.7917 81.9232 81.0467 80.1651 79.281 78.3973 77.5166 76.6415 75.7747
74.9183 74.0748 73.246 72.434 71.6404 70.8667 70.1145 69.3849 68.6791 67.998
67.3425 66.7131 66.1106 65.5351 64.9869 64.4658 63.9706 63.5018 63.0575 62.6361
62.2366 61.8583 61.5005 61.1627 60.8425 60.5427 60.2477 60.0109 59.6046 
U 3 200 float
0 0 0 0 0 0 0 0 0 0 0
0 0 0 0 0 0 0 0 0 0
0 0 0 0 0 0 0 0 0 0
0 0 0 0 0 0 0 0 0 0
0 0 0 0 0 0 0 0 0 0
0 0 0 0 0 0 0 0 0 0
0 0 0 0 0 0 0 0 0 0
0 0 0 0 0 0 0 0 0 0
0 0 0 0 0 0 0 0 0 0
0 0 0 0 0 0 0 0 0 0
0 0 0 0 0 0 0 0 0 0
0 0 0 0 0 0 0 0 0 0
0 0 0 0 0 0 0 0 0 0
0 0 0 0 0 0 0 0 0 0
0 0 0 0 0 0 0 0 0 0
0 0 0 0 0 0 0 0 0 0
0 0 0 0 0 0 0 0 0 0
0 0 0 0 0 0 0 0 0 0
0 0 0 0 0 0 0 0 0 0
0 0 0 0 0 0 0 0 0 0
0 0 0 0 0 0 0 0 0 0
0 0 0 0 0 0 0 0 0 0
0 0 0 0 0 0 0 0 0 0
0 0 0 0 0 0 0 0 0 0
0 0 0 0 0 0 0 0 0 0
0 0 0 0 0 0 0 0 0 0
0 0 0 0 0 0 0 0 0 0
0 0 0 0 0 0 0 0 0 0
0 0 0 0 0 0 0 0 0 0
0 0 0 0 0 0 0 0 0 0
0 0 0 0 0 0 0 0 0 0
0 0 0 0 0 0 0 0 0 0
0 0 0 0 0 0 0 0 0 0
0 0 0 0 0 0 0 0 0 0
0 0 0 0 0 0 0 0 0 0
0 0 0 0 0 0 0 0 0 0
0 0 0 0 0 0 0 0 0 0
0 0 0 0 0 0 0 0 0 0
0 0 0 0 0 0 0 0 0 0
0 0 0 0 0 0 0 0 0 0
0 0 0 0 0 0 0 0 0 0
0 0 0 0 0 0 0 0 0 0
0 0 0 0 0 0 0 0 0 0
0 0 0 0 0 0 0 0 0 0
0 0 0 0 0 0 0 0 0 0
0 0 0 0 0 0 0 0 0 0
0 0 0 0 0 0 0 0 0 0
0 0 0 0 0 0 0 0 0 0
0 0 0 0 0 0 0 0 0 0
0 0 0 0 0 0 0 0 0 0
0 0 0 0 0 0 0 0 0 0
0 0 0 0 0 0 0 0 0 0
0 0 0 0 0 0 0 0 0 0
0 0 0 0 0 0 0 0 0 0
0 0 0 0 0 0 0 0 0 0
0 0 0 0 0 0 0 0 0 0
0 0 0 0 0 0 0 0 0 0
0 0 0 0 0 0 0 0 0 0
0 0 0 0 0 0 0 0 0 0
0 0 0 0 0 0 0 0 0 
POINT_DATA  402
FIELD attributes 5
p 1 402 float
-8.44971 -8.44971 -8.72022 -8.72022 -9.19932 -9.19932 -9.49644 -9.49644 -9.63041 -9.63041 -9.71628
-9.71628 -9.78959 -9.78959 -9.84629 -9.84629 -9.88808 -9.88808 -9.92106 -9.92106 -9.94858
-9.94858 -9.9719 -9.9719 -9.99196 -9.99196 -10.0096 -10.0096 -10.0254 -10.0254 -10.0398
-10.0398 -10.053 -10.053 -10.0653 -10.0653 -10.0768 -10.0768 -10.0876 -10.0876 -10.0979
-10.0979 -10.1077 -10.1077 -10.117 -10.117 -10.126 -10.126 -10.1345 -10.1345 -10.1427
-10.1427 -10.1505 -10.1505 -10.1581 -10.1581 -10.1654 -10.1654 -10.1724 -10.1724 -10.1791
-10.1791 -10.1855 -10.1855 -10.1916 -10.1916 -10.1975 -10.1975 -10.2031 -10.2031 -10.2084
-10.2084 -10.2135 -10.2135 -10.2184 -10.2184 -10.2229 -10.2229 -10.2272 -10.2272 -10.2313
-10.2313 -10.2352 -10.2352 -10.2388 -10.2388 -10.2422 -10.2422 -10.2453 -10.2453 -10.2482
-10.2482 -10.2509 -10.2509 -10.2534 -10.2534 -10.2557 -10.2557 -10.2577 -10.2577 -10.2596
-10.2596 -10.2612 -10.2612 -10.2626 -10.2626 -10.2636 -10.2636 -10.2641 -10.2641 -10.2642
-10.2642 -10.2639 -10.2639 -10.2631 -10.2631 -10.2618 -10.2618 -10.2598 -10.2598 -10.2573
-10.2573 -10.2542 -10.2542 -10.2505 -10.2505 -10.246 -10.246 -10.2408 -10.2408 -10.2348
-10.2348 -10.2281 -10.2281 -10.2205 -10.2205 -10.2121 -10.2121 -10.2027 -10.2027 -10.1923
-10.1923 -10.181 -10.181 -10.1685 -10.1685 -10.155 -10.155 -10.1402 -10.1402 -10.1243
-10.1243 -10.1071 -10.1071 -10.0885 -10.0885 -10.0685 -10.0685 -10.0471 -10.0471 -10.0242
-10.0242 -9.99963 -9.99963 -9.97345 -9.97345 -9.94556 -9.94556 -9.9159 -9.9159 -9.88438
-9.88438 -9.85095 -9.85095 -9.81554 -9.81554 -9.77808 -9.77808 -9.73849 -9.73849 -9.69672
-9.69672 -9.6527 -9.6527 -9.60636 -9.60636 -9.55764 -9.55764 -9.50647 -9.50647 -9.4528
-9.4528 -9.39658 -9.39658 -9.33775 -9.33775 -9.27625 -9.27625 -9.21205 -9.21205 -9.14511
-9.14511 -9.07539 -9.07539 -9.00286 -9.00286 -8.92751 -8.92751 -8.84931 -8.84931 -8.76825
-8.76825 -8.68435 -8.68435 -8.5976 -8.5976 -8.50803 -8.50803 -8.41565 -8.41565 -8.32051
-8.32051 -8.22266 -8.22266 -8.12214 -8.12214 -8.01901 -8.01901 -7.91337 -7.91337 -7.80529
-7.80529 -7.69488 -7.69488 -7.58224 -7.58224 -7.46749 -7.46749 -7.35075 -7.35075 -7.23218
-7.23218 -7.11191 -7.11191 -6.9901 -6.9901 -6.86693 -6.86693 -6.74255 -6.74255 -6.61716
-6.61716 -6.49093 -6.49093 -6.36407 -6.36407 -6.23675 -6.23675 -6.10917 -6.10917 -5.98153
-5.98153 -5.85402 -5.85402 -5.72683 -5.72683 -5.60014 -5.60014 -5.47412 -5.47412 -5.34893
-5.34893 -5.22473 -5.22473 -5.10165 -5.10165 -4.97981 -4.97981 -4.85932 -4.85932 -4.74026
-4.74026 -4.62268 -4.62268 -4.50663 -4.50663 -4.39212 -4.39212 -4.27917 -4.27917 -4.16774
-4.16774 -4.05779 -4.05779 -3.94927 -3.94927 -3.8421 -3.8421 -3.7362 -3.7362 -3.63148
-3.63148 -3.52785 -3.52785 -3.42519 -3.42519 -3.32342 -3.32342 -3.22244 -3.22244 -3.12217
-3.12217 -3.02253 -3.02253 -2.92347 -2.92347 -2.82493 -2.82493 -2.7269 -2.7269 -2.62935
-2.62935 -2.53229 -2.53229 -2.43574 -2.43574 -2.33974 -2.33974 -2.24434 -2.24434 -2.1496
-2.1496 -2.05562 -2.05562 -1.96248 -1.96248 -1.87028 -1.87028 -1.77913 -1.77913 -1.68915
-1.68915 -1.60046 -1.60046 -1.5132 -1.5132 -1.42747 -1.42747 -1.34342 -1.34342 -1.26118
-1.26118 -1.18087 -1.18087 -1.10261 -1.10261 -1.02652 -1.02652 -0.952725 -0.952725 -0.881326
-0.881326 -0.812423 -0.812423 -0.746106 -0.746106 -0.682455 -0.682455 -0.621537 -0.621537 -0.563398
-0.563398 -0.508066 -0.508066 -0.455553 -0.455553 -0.405937 -0.405937 -0.359309 -0.359309 -0.315623
-0.315623 -0.27473 -0.27473 -0.236464 -0.236464 -0.200652 -0.200652 -0.167085 -0.167085 -0.135568
-0.135568 -0.1058 -0.1058 -0.0776709 -0.0776709 -0.0508085 -0.0508085 -0.0248576 -0.0248576 -0.0121397
-0.0121397 
nut 1 402 float
5.81613e-06 5.81613e-06 6.00974e-06 6.00974e-06 6.39186e-06 6.39186e-06 6.76233e-06 6.76233e-06 7.11905e-06 7.11905e-06 7.46178e-06
7.46178e-06 7.79088e-06 7.79088e-06 8.10666e-06 8.10666e-06 8.4094e-06 8.4094e-06 8.69934e-06 8.69934e-06 8.97672e-06
8.97672e-06 9.24182e-06 9.24182e-06 9.49493e-06 9.49493e-06 9.73632e-06 9.73632e-06 9.96632e-06 9.96632e-06 1.01852e-05
1.01852e-05 1.03934e-05 1.03934e-05 1.05912e-05 1.05912e-05 1.07789e-05 1.07789e-05 1.09568e-05 1.09568e-05 1.11255e-05
1.11255e-05 1.12851e-05 1.12851e-05 1.14361e-05 1.14361e-05 1.15787e-05 1.15787e-05 1.17134e-05 1.17134e-05 1.18405e-05
1.18405e-05 1.19602e-05 1.19602e-05 1.2073e-05 1.2073e-05 1.21792e-05 1.21792e-05 1.2279e-05 1.2279e-05 1.23728e-05
1.23728e-05 1.24608e-05 1.24608e-05 1.25434e-05 1.25434e-05 1.26207e-05 1.26207e-05 1.26931e-05 1.26931e-05 1.27608e-05
1.27608e-05 1.28241e-05 1.28241e-05 1.28832e-05 1.28832e-05 1.29383e-05 1.29383e-05 1.29895e-05 1.29895e-05 1.30372e-05
1.30372e-05 1.30816e-05 1.30816e-05 1.31227e-05 1.31227e-05 1.31607e-05 1.31607e-05 1.31959e-05 1.31959e-05 1.32284e-05
1.32284e-05 1.32584e-05 1.32584e-05 1.32859e-05 1.32859e-05 1.33112e-05 1.33112e-05 1.33343e-05 1.33343e-05 1.33569e-05
1.33569e-05 1.33804e-05 1.33804e-05 1.34031e-05 1.34031e-05 1.34232e-05 1.34232e-05 1.34407e-05 1.34407e-05 1.34557e-05
1.34557e-05 1.34682e-05 1.34682e-05 1.34783e-05 1.34783e-05 1.34861e-05 1.34861e-05 1.34913e-05 1.34913e-05 1.34944e-05
1.34944e-05 1.34951e-05 1.34951e-05 1.34936e-05 1.34936e-05 1.349e-05 1.349e-05 1.34842e-05 1.34842e-05 1.34763e-05
1.34763e-05 1.34663e-05 1.34663e-05 1.34544e-05 1.34544e-05 1.34404e-05 1.34404e-05 1.34245e-05 1.34245e-05 1.34068e-05
1.34068e-05 1.33872e-05 1.33872e-05 1.33658e-05 1.33658e-05 1.33426e-05 1.33426e-05 1.33176e-05 1.33176e-05 1.3291e-05
1.3291e-05 1.32626e-05 1.32626e-05 1.32326e-05 1.32326e-05 1.3201e-05 1.3201e-05 1.31678e-05 1.31678e-05 1.3133e-05
1.3133e-05 1.30967e-05 1.30967e-05 1.30588e-05 1.30588e-05 1.30193e-05 1.30193e-05 1.29784e-05 1.29784e-05 1.2936e-05
1.2936e-05 1.28921e-05 1.28921e-05 1.28468e-05 1.28468e-05 1.27999e-05 1.27999e-05 1.27517e-05 1.27517e-05 1.2702e-05
1.2702e-05 1.26508e-05 1.26508e-05 1.25983e-05 1.25983e-05 1.25443e-05 1.25443e-05 1.24889e-05 1.24889e-05 1.24321e-05
1.24321e-05 1.23739e-05 1.23739e-05 1.23143e-05 1.23143e-05 1.22533e-05 1.22533e-05 1.21909e-05 1.21909e-05 1.21272e-05
1.21272e-05 1.20621e-05 1.20621e-05 1.19957e-05 1.19957e-05 1.19281e-05 1.19281e-05 1.18592e-05 1.18592e-05 1.17891e-05
1.17891e-05 1.17178e-05 1.17178e-05 1.16454e-05 1.16454e-05 1.1572e-05 1.1572e-05 1.14976e-05 1.14976e-05 1.14223e-05
1.14223e-05 1.13463e-05 1.13463e-05 1.12696e-05 1.12696e-05 1.11924e-05 1.11924e-05 1.11147e-05 1.11147e-05 1.10368e-05
1.10368e-05 1.09588e-05 1.09588e-05 1.08809e-05 1.08809e-05 1.08033e-05 1.08033e-05 1.0726e-05 1.0726e-05 1.06494e-05
1.06494e-05 1.05737e-05 1.05737e-05 1.04991e-05 1.04991e-05 1.04256e-05 1.04256e-05 1.03537e-05 1.03537e-05 1.02834e-05
1.02834e-05 1.0215e-05 1.0215e-05 1.01485e-05 1.01485e-05 1.00843e-05 1.00843e-05 1.00223e-05 1.00223e-05 9.96277e-06
9.96277e-06 9.90569e-06 9.90569e-06 9.85113e-06 9.85113e-06 9.79909e-06 9.79909e-06 9.74954e-06 9.74954e-06 9.70241e-06
9.70241e-06 9.65761e-06 9.65761e-06 9.61499e-06 9.61499e-06 9.57439e-06 9.57439e-06 9.53562e-06 9.53562e-06 9.49845e-06
9.49845e-06 9.46265e-06 9.46265e-06 9.42797e-06 9.42797e-06 9.39414e-06 9.39414e-06 9.36089e-06 9.36089e-06 9.32795e-06
9.32795e-06 9.29507e-06 9.29507e-06 9.26198e-06 9.26198e-06 9.22846e-06 9.22846e-06 9.19428e-06 9.19428e-06 9.15923e-06
9.15923e-06 9.12315e-06 9.12315e-06 9.08588e-06 9.08588e-06 9.04729e-06 9.04729e-06 9.00729e-06 9.00729e-06 8.9658e-06
8.9658e-06 8.92278e-06 8.92278e-06 8.87822e-06 8.87822e-06 8.83214e-06 8.83214e-06 8.78456e-06 8.78456e-06 8.73555e-06
8.73555e-06 8.6852e-06 8.6852e-06 8.6336e-06 8.6336e-06 8.58088e-06 8.58088e-06 8.52716e-06 8.52716e-06 8.47261e-06
8.47261e-06 8.41736e-06 8.41736e-06 8.36158e-06 8.36158e-06 8.30544e-06 8.30544e-06 8.24909e-06 8.24909e-06 8.19271e-06
8.19271e-06 8.13646e-06 8.13646e-06 8.08049e-06 8.08049e-06 8.02496e-06 8.02496e-06 7.97002e-06 7.97002e-06 7.91579e-06
7.91579e-06 7.86242e-06 7.86242e-06 7.81004e-06 7.81004e-06 7.75875e-06 7.75875e-06 7.70867e-06 7.70867e-06 7.6599e-06
7.6599e-06 7.61254e-06 7.61254e-06 7.56668e-06 7.56668e-06 7.52238e-06 7.52238e-06 7.47973e-06 7.47973e-06 7.43876e-06
7.43876e-06 7.39952e-06 7.39952e-06 7.362e-06 7.362e-06 7.32619e-06 7.32619e-06 7.29209e-06 7.29209e-06 7.2596e-06
7.2596e-06 7.22864e-06 7.22864e-06 7.19917e-06 7.19917e-06 7.17113e-06 7.17113e-06 7.14452e-06 7.14452e-06 7.11925e-06
7.11925e-06 7.09534e-06 7.09534e-06 7.07233e-06 7.07233e-06 7.05168e-06 7.05168e-06 7.02662e-06 7.02662e-06 7.01076e-06
7.01076e-06 
k 1 402 float
0.205935 0.205935 0.212257 0.212257 0.224942 0.224942 0.237644 0.237644 0.250253 0.250253 0.262719
0.262719 0.275016 0.275016 0.28712 0.28712 0.299005 0.299005 0.310645 0.310645 0.32202