# vtk DataFile Version 2.0
lowerWall
ASCII
DATASET POLYDATA
POINTS 442 float
-0.06 0 -0.005 -0.0583378 0 -0.005 -0.0583378 0 0.005 -0.06 0
0.005 -0.0566989 0 -0.005 -0.0566989 0 0.005 -0.0550831 0 -0.005
-0.0550831 0 0.005 -0.05349 0 -0.005 -0.05349 0 0.005 -0.0519192
0 -0.005 -0.0519192 0 0.005 -0.0503705 0 -0.005 -0.0503705 0
0.005 -0.0488435 0 -0.005 -0.0488435 0 0.005 -0.047338 0 -0.005
-0.047338 0 0.005 -0.0458537 0 -0.005 -0.0458537 0 0.005 -0.0443902
0 -0.005 -0.0443902 0 0.005 -0.0429472 0 -0.005 -0.0429472 0
0.005 -0.0415246 0 -0.005 -0.0415246 0 0.005 -0.0401219 0 -0.005
-0.0401219 0 0.005 -0.0387389 0 -0.005 -0.0387389 0 0.005 -0.0373753
0 -0.005 -0.0373753 0 0.005 -0.0360309 0 -0.005 -0.0360309 0
0.005 -0.0347054 0 -0.005 -0.0347054 0 0.005 -0.0333985 0 -0.005
-0.0333985 0 0.005 -0.0321099 0 -0.005 -0.0321099 0 0.005 -0.0308395
0 -0.005 -0.0308395 0 0.005 -0.0295868 0 -0.005 -0.0295868 0
0.005 -0.0283518 0 -0.005 -0.0283518 0 0.005 -0.0271342 0 -0.005
-0.0271342 0 0.005 -0.0259336 0 -0.005 -0.0259336 0 0.005 -0.0247499
0 -0.005 -0.0247499 0 0.005 -0.0235828 0 -0.005 -0.0235828 0
0.005 -0.0224322 0 -0.005 -0.0224322 0 0.005 -0.0212976 0 -0.005
-0.0212976 0 0.005 -0.0201791 0 -0.005 -0.0201791 0 0.005 -0.0190762
0 -0.005 -0.0190762 0 0.005 -0.0179888 0 -0.005 -0.0179888 0
0.005 -0.0169167 0 -0.005 -0.0169167 0 0.005 -0.0158597 0 -0.005
-0.0158597 0 0.005 -0.0148175 0 -0.005 -0.0148175 0 0.005 -0.0137899
0 -0.005 -0.0137899 0 0.005 -0.0127768 0 -0.005 -0.0127768 0
0.005 -0.0117779 0 -0.005 -0.0117779 0 0.005 -0.010793 0 -0.005
-0.010793 0 0.005 -0.00982198 0 -0.005 -0.00982198 0 0.005 -0.00886459
0 -0.005 -0.00886459 0 0.005 -0.00792065 0 -0.005 -0.00792065 0
0.005 -0.00698996 0 -0.005 -0.00698996 0 0.005 -0.00607235 0 -0.005
-0.00607235 0 0.005 -0.00516763 0 -0.005 -0.00516763 0 0.005 -0.00427561
0 -0.005 -0.00427561 0 0.005 -0.00339613 0 -0.005 -0.00339613 0
0.005 -0.002529 0 -0.005 -0.002529 0 0.005 -0.00167405 0 -0.005
-0.00167405 0 0.005 -0.000831103 0 -0.005 -0.000831103 0 0.005 0
0 -0.005 0 0 0.005 0 -0.03 -0.005 0 -0.03
0.005 0 -0.027436 0.005 0 -0.027436 -0.005 0 -0.0250294 0.005
0 -0.0250294 -0.005 0 -0.0227706 0.005 0 -0.0227706 -0.005 0
-0.0206505 0.005 0 -0.0206505 -0.005 0 -0.0186606 0.005 0 -0.0186606
-0.005 0 -0.0167928 0.005 0 -0.0167928 -0.005 0 -0.0150398 0.005
0 -0.0150398 -0.005 0 -0.0133943 0.005 0 -0.0133943 -0.005 0
-0.0118499 0.005 0 -0.0118499 -0.005 0 -0.0104004 0.005 0 -0.0104004
-0.005 0 -0.0090398 0.005 0 -0.0090398 -0.005 0 -0.00776278 0.005
0 -0.00776278 -0.005 0 -0.00656416 0.005 0 -0.00656416 -0.005 0
-0.00543915 0.005 0 -0.00543915 -0.005 0 -0.00438321 0.005 0 -0.00438321
-0.005 0 -0.0033921 0.005 0 -0.0033921 -0.005 0 -0.00246185 0.005
0 -0.00246185 -0.005 0 -0.00158872 0.005 0 -0.00158872 -0.005 0
-0.000769201 0.005 0 -0.000769201 -0.005 0.00109789 -0.03 -0.005 0.00109789 -0.03
0.005 0.0022039 -0.03 -0.005 0.0022039 -0.03 0.005 0.00331809 -0.03 -0.005
0.00331809 -0.03 0.005 0.00444053 -0.03 -0.005 0.00444053 -0.03 0.005 0.00557128
-0.03 -0.005 0.00557128 -0.03 0.005 0.0067104 -0.03 -0.005 0.0067104 -0.03
0.005 0.00785794 -0.03 -0.005 0.00785794 -0.03 0.005 0.00901398 -0.03 -0.005
0.00901398 -0.03 0.005 0.0101786 -0.03 -0.005 0.0101786 -0.03 0.005 0.0113518
-0.03 -0.005 0.0113518 -0.03 0.005 0.0125337 -0.03 -0.005 0.0125337 -0.03
0.005 0.0137243 -0.03 -0.005 0.0137243 -0.03 0.005 0.0149238 -0.03 -0.005
0.0149238 -0.03 0.005 0.0161321 -0.03 -0.005 0.0161321 -0.03 0.005 0.0173494
-0.03 -0.005 0.0173494 -0.03 0.005 0.0185757 -0.03 -0.005 0.0185757 -0.03
0.005 0.019811 -0.03 -0.005 0.019811 -0.03 0.005 0.0210555 -0.03 -0.005
0.0210555 -0.03 0.005 0.0223092 -0.03 -0.005 0.0223092 -0.03 0.005 0.0235722
-0.03 -0.005 0.0235722 -0.03 0.005 0.0248445 -0.03 -0.005 0.0248445 -0.03
0.005 0.0261263 -0.03 -0.005 0.0261263 -0.03 0.005 0.0274175 -0.03 -0.005
0.0274175 -0.03 0.005 0.0287183 -0.03 -0.005 0.0287183 -0.03 0.005 0.0300287
-0.03 -0.005 0.0300287 -0.03 0.005 0.0313488 -0.03 -0.005 0.0313488 -0.03
0.005 0.0326787 -0.03 -0.005 0.0326787 -0.03 0.005 0.0340184 -0.03 -0.005
0.0340184 -0.03 0.005 0.0353681 -0.03 -0.005 0.0353681 -0.03 0.005 0.0367277
-0.03 -0.005 0.0367277 -0.03 0.005 0.0380974 -0.03 -0.005 0.0380974 -0.03
0.005 0.0394772 -0.03 -0.005 0.0394772 -0.03 0.005 0.0408672 -0.03 -0.005
0.0408672 -0.03 0.005 0.0422676 -0.03 -0.005 0.0422676 -0.03 0.005 0.0436783
-0.03 -0.005 0.0436783 -0.03 0.005 0.0450994 -0.03 -0.005 0.0450994 -0.03
0.005 0.046531 -0.03 -0.005 0.046531 -0.03 0.005 0.0479733 -0.03 -0.005
0.0479733 -0.03 0.005 0.0494262 -0.03 -0.005 0.0494262 -0.03 0.005 0.0508898
-0.03 -0.005 0.0508898 -0.03 0.005 0.0523643 -0.03 -0.005 0.0523643 -0.03
0.005 0.0538497 -0.03 -0.005 0.0538497 -0.03 0.005 0.0553461 -0.03 -0.005
0.0553461 -0.03 0.005 0.0568536 -0.03 -0.005 0.0568536 -0.03 0.005 0.0583722
-0.03 -0.005 0.0583722 -0.03 0.005 0.0599021 -0.03 -0.005 0.0599021 -0.03
0.005 0.0614433 -0.03 -0.005 0.0614433 -0.03 0.005 0.0629959 -0.03 -0.005
0.0629959 -0.03 0.005 0.06456 -0.03 -0.005 0.06456 -0.03 0.005 0.0661356
-0.03 -0.005 0.0661356 -0.03 0.005 0.067723 -0.03 -0.005 0.067723 -0.03
0.005 0.069322 -0.03 -0.005 0.069322 -0.03 0.005 0.0709329 -0.03 -0.005
0.0709329 -0.03 0.005 0.0725558 -0.03 -0.005 0.0725558 -0.03 0.005 0.0741906
-0.03 -0.005 0.0741906 -0.03 0.005 0.0758375 -0.03 -0.005 0.0758375 -0.03
0.005 0.0774966 -0.03 -0.005 0.0774966 -0.03 0.005 0.079168 -0.03 -0.005
0.079168 -0.03 0.005 0.0808518 -0.03 -0.005 0.0808518 -0.03 0.005 0.082548
-0.03 -0.005 0.082548 -0.03 0.005 0.0842568 -0.03 -0.005 0.0842568 -0.03
0.005 0.0859782 -0.03 -0.005 0.0859782 -0.03 0.005 0.0877124 -0.03 -0.005
0.0877124 -0.03 0.005 0.0894594 -0.03 -0.005 0.0894594 -0.03 0.005 0.0912193
-0.03 -0.005 0.0912193 -0.03 0.005 0.0929923 -0.03 -0.005 0.0929923 -0.03
0.005 0.0947784 -0.03 -0.005 0.0947784 -0.03 0.005 0.0965777 -0.03 -0.005
0.0965777 -0.03 0.005 0.0983903 -0.03 -0.005 0.0983903 -0.03 0.005 0.100216
-0.03 -0.005 0.100216 -0.03 0.005 0.102056 -0.03 -0.005 0.102056 -0.03
0.005 0.103909 -0.03 -0.005 0.103909 -0.03 0.005 0.105776 -0.03 -0.005
0.105776 -0.03 0.005 0.107657 -0.03 -0.005 0.107657 -0.03 0.005 0.109551
-0.03 -0.005 0.109551 -0.03 0.005 0.11146 -0.03 -0.005 0.11146 -0.03
0.005 0.113382 -0.03 -0.005 0.113382 -0.03 0.005 0.115319 -0.03 -0.005
0.115319 -0.03 0.005 0.117271 -0.03 -0.005 0.117271 -0.03 0.005 0.119236
-0.03 -0.005 0.119236 -0.03 0.005 0.121217 -0.03 -0.005 0.121217 -0.03
0.005 0.123212 -0.03 -0.005 0.123212 -0.03 0.005 0.125221 -0.03 -0.005
0.125221 -0.03 0.005 0.127246 -0.03 -0.005 0.127246 -0.03 0.005 0.129286
-0.03 -0.005 0.129286 -0.03 0.005 0.13134 -0.03 -0.005 0.13134 -0.03
0.005 0.13341 -0.03 -0.005 0.13341 -0.03 0.005 0.135495 -0.03 -0.005
0.135495 -0.03 0.005 0.137596 -0.03 -0.005 0.137596 -0.03 0.005 0.139712
-0.03 -0.005 0.139712 -0.03 0.005 0.141844 -0.03 -0.005 0.141844 -0.03
0.005 0.143992 -0.03 -0.005 0.143992 -0.03 0.005 0.146155 -0.03 -0.005
0.146155 -0.03 0.005 0.148335 -0.03 -0.005 0.148335 -0.03 0.005 0.15053
-0.03 -0.005 0.15053 -0.03 0.005 0.152742 -0.03 -0.005 0.152742 -0.03
0.005 0.15497 -0.03 -0.005 0.15497 -0.03 0.005 0.157215 -0.03 -0.005
0.157215 -0.03 0.005 0.159476 -0.03 -0.005 0.159476 -0.03 0.005 0.161754
-0.03 -0.005 0.161754 -0.03 0.005 0.164049 -0.03 -0.005 0.164049 -0.03
0.005 0.166361 -0.03 -0.005 0.166361 -0.03 0.005 0.16869 -0.03 -0.005
0.16869 -0.03 0.005 0.171037 -0.03 -0.005 0.171037 -0.03 0.005 0.1734
-0.03 -0.005 0.1734 -0.03 0.005 0.175781 -0.03 -0.005 0.175781 -0.03
0.005 0.17818 -0.03 -0.005 0.17818 -0.03 0.005 0.180597 -0.03 -0.005
0.180597 -0.03 0.005 0.183031 -0.03 -0.005 0.183031 -0.03 0.005 0.185483
-0.03 -0.005 0.185483 -0.03 0.005 0.187954 -0.03 -0.005 0.187954 -0.03
0.005 0.190443 -0.03 -0.005 0.190443 -0.03 0.005 0.19295 -0.03 -0.005
0.19295 -0.03 0.005 0.195476 -0.03 -0.005 0.195476 -0.03 0.005 0.19802
-0.03 -0.005 0.19802 -0.03 0.005 0.200584 -0.03 -0.005 0.200584 -0.03
0.005 0.203166 -0.03 -0.005 0.203166 -0.03 0.005 0.205767 -0.03 -0.005
0.205767 -0.03 0.005 0.208388 -0.03 -0.005 0.208388 -0.03 0.005 0.211028
-0.03 -0.005 0.211028 -0.03 0.005 0.213688 -0.03 -0.005 0.213688 -0.03
0.005 0.216367 -0.03 -0.005 0.216367 -0.03 0.005 0.219066 -0.03 -0.005
0.219066 -0.03 0.005 0.221785 -0.03 -0.005 0.221785 -0.03 0.005 0.224524
-0.03 -0.005 0.224524 -0.03 0.005 0.227284 -0.03 -0.005 0.227284 -0.03
0.005 0.230064 -0.03 -0.005 0.230064 -0.03 0.005 0.232864 -0.03 -0.005
0.232864 -0.03 0.005 0.235686 -0.03 -0.005 0.235686 -0.03 0.005 0.238528
-0.03 -0.005 0.238528 -0.03 0.005 0.241391 -0.03 -0.005 0.241391 -0.03
0.005 0.244275 -0.03 -0.005 0.244275 -0.03 0.005 0.247181 -0.03 -0.005
0.247181 -0.03 0.005 0.250108 -0.03 -0.005 0.250108 -0.03 0.005 0.253057
-0.03 -0.005 0.253057 -0.03 0.005 0.256027 -0.03 -0.005 0.256027 -0.03
0.005 0.25902 -0.03 -0.005 0.25902 -0.03 0.005 0.262035 -0.03 -0.005
0.262035 -0.03 0.005 0.265072 -0.03 -0.005 0.265072 -0.03 0.005 0.268131
-0.03 -0.005 0.268131 -0.03 0.005 0.271213 -0.03 -0.005 0.271213 -0.03
0.005 0.274318 -0.03 -0.005 0.274318 -0.03 0.005 0.277446 -0.03 -0.005
0.277446 -0.03 0.005 0.280597 -0.03 -0.005 0.280597 -0.03 0.005 0.283772
-0.03 -0.005 0.283772 -0.03 0.005 0.28697 -0.03 -0.005 0.28697 -0.03
0.005 0.290191 -0.03 -0.005 0.290191 -0.03 0.005 0.293437 -0.03 -0.005
0.293437 -0.03 0.005 0.296706 -0.03 -0.005 0.296706 -0.03 0.005 0.3
-0.03 -0.005 0.3 -0.03 0.005 
POLYGONS 220 1100
4 0 1 2 3 4 1 4 5 2 4
4 6 7 5 4 6 8 9 7 4
8 10 11 9 4 10 12 13 11 4
12 14 15 13 4 14 16 17 15 4
16 18 19 17 4 18 20 21 19 4
20 22 23 21 4 22 24 25 23 4
24 26 27 25 4 26 28 29 27 4
28 30 31 29 4 30 32 33 31 4
32 34 35 33 4 34 36 37 35 4
36 38 39 37 4 38 40 41 39 4
40 42 43 41 4 42 44 45 43 4
44 46 47 45 4 46 48 49 47 4
48 50 51 49 4 50 52 53 51 4
52 54 55 53 4 54 56 57 55 4
56 58 59 57 4 58 60 61 59 4
60 62 63 61 4 62 64 65 63 4
64 66 67 65 4 66 68 69 67 4
68 70 71 69 4 70 72 73 71 4
72 74 75 73 4 74 76 77 75 4
76 78 79 77 4 78 80 81 79 4
80 82 83 81 4 82 84 85 83 4
84 86 87 85 4 86 88 89 87 4
88 90 91 89 4 90 92 93 91 4
92 94 95 93 4 94 96 97 95 4
96 98 99 97 4 98 100 101 99 4
102 103 104 105 4 105 104 106 107 4
107 106 108 109 4 109 108 110 111 4
111 110 112 113 4 113 112 114 115 4
115 114 116 117 4 117 116 118 119 4
119 118 120 121 4 121 120 122 123 4
123 122 124 125 4 125 124 126 127 4
127 126 128 129 4 129 128 130 131 4
131 130 132 133 4 133 132 134 135 4
135 134 136 137 4 137 136 138 139 4
139 138 140 141 4 141 140 101 100 4
102 142 143 103 4 142 144 145 143 4
144 146 147 145 4 146 148 149 147 4
148 150 151 149 4 150 152 153 151 4
152 154 155 153 4 154 156 157 155 4
156 158 159 157 4 158 160 161 159 4
160 162 163 161 4 162 164 165 163 4
164 166 167 165 4 166 168 169 167 4
168 170 171 169 4 170 172 173 171 4
172 174 175 173 4 174 176 177 175 4
176 178 179 177 4 178 180 181 179 4
180 182 183 181 4 182 184 185 183 4
184 186 187 185 4 186 188 189 187 4
188 190 191 189 4 190 192 193 191 4
192 194 195 193 4 194 196 197 195 4
196 198 199 197 4 198 200 201 199 4
200 202 203 201 4 202 204 205 203 4
204 206 207 205 4 206 208 209 207 4
208 210 211 209 4 210 212 213 211 4
212 214 215 213 4 214 216 217 215 4
216 218 219 217 4 218 220 221 219 4
220 222 223 221 4 222 224 225 223 4
224 226 227 225 4 226 228 229 227 4
228 230 231 229 4 230 232 233 231 4
232 234 235 233 4 234 236 237 235 4
236 238 239 237 4 238 240 241 239 4
240 242 243 241 4 242 244 245 243 4
244 246 247 245 4 246 248 249 247 4
248 250 251 249 4 250 252 253 251 4
252 254 255 253 4 254 256 257 255 4
256 258 259 257 4 258 260 261 259 4
260 262 263 261 4 262 264 265 263 4
264 266 267 265 4 266 268 269 267 4
268 270 271 269 4 270 272 273 271 4
272 274 275 273 4 274 276 277 275 4
276 278 279 277 4 278 280 281 279 4
280 282 283 281 4 282 284 285 283 4
284 286 287 285 4 286 288 289 287 4
288 290 291 289 4 290 292 293 291 4
292 294 295 293 4 294 296 297 295 4
296 298 299 297 4 298 300 301 299 4
300 302 303 301 4 302 304 305 303 4
304 306 307 305 4 306 308 309 307 4
308 310 311 309 4 310 312 313 311 4
312 314 315 313 4 314 316 317 315 4
316 318 319 317 4 318 320 321 319 4
320 322 323 321 4 322 324 325 323 4
324 326 327 325 4 326 328 329 327 4
328 330 331 329 4 330 332 333 331 4
332 334 335 333 4 334 336 337 335 4
336 338 339 337 4 338 340 341 339 4
340 342 343 341 4 342 344 345 343 4
344 346 347 345 4 346 348 349 347 4
348 350 351 349 4 350 352 353 351 4
352 354 355 353 4 354 356 357 355 4
356 358 359 357 4 358 360 361 359 4
360 362 363 361 4 362 364 365 363 4
364 366 367 365 4 366 368 369 367 4
368 370 371 369 4 370 372 373 371 4
372 374 375 373 4 374 376 377 375 4
376 378 379 377 4 378 380 381 379 4
380 382 383 381 4 382 384 385 383 4
384 386 387 385 4 386 388 389 387 4
388 390 391 389 4 390 392 393 391 4
392 394 395 393 4 394 396 397 395 4
396 398 399 397 4 398 400 401 399 4
400 402 403 401 4 402 404 405 403 4
404 406 407 405 4 406 408 409 407 4
408 410 411 409 4 410 412 413 411 4
412 414 415 413 4 414 416 417 415 4
416 418 419 417 4 418 420 421 419 4
420 422 423 421 4 422 424 425 423 4
424 426 427 425 4 426 428 429 427 4
428 430 431 429 4 430 432 433 431 4
432 434 435 433 4 434 436 437 435 4
436 438 439 437 4 438 440 441 439 
CELL_DATA 220
FIELD attributes 6
patchID 1 220 float
2 2 2 2 2 2 2 2 2 2 2
2 2 2 2 2 2 2 2 2 2
2 2 2 2 2 2 2 2 2 2
2 2 2 2 2 2 2 2 2 2
2 2 2 2 2 2 2 2 2 2
2 2 2 2 2 2 2 2 2 2
2 2 2 2 2 2 2 2 2 2
2 2 2 2 2 2 2 2 2 2
2 2 2 2 2 2 2 2 2 2
2 2 2 2 2 2 2 2 2 2
2 2 2 2 2 2 2 2 2 2
2 2 2 2 2 2 2 2 2 2
2 2 2 2 2 2 2 2 2 2
2 2 2 2 2 2 2 2 2 2
2 2 2 2 2 2 2 2 2 2
2 2 2 2 2 2 2 2 2 2
2 2 2 2 2 2 2 2 2 2
2 2 2 2 2 2 2 2 2 2
2 2 2 2 2 2 2 2 2 2
2 2 2 2 2 2 2 2 2 2
2 2 2 2 2 2 2 2 2 2
2 2 2 2 2 2 2 2 2 
p 1 220 float
-7.22701 -8.71395 -9.41449 -9.62325 -9.75191 -9.85213 -9.91569 -9.95822 -9.99229 -10.0212 -10.0459
-10.0677 -10.0875 -10.1058 -10.123 -10.1392 -10.1547 -10.1695 -10.1839 -10.1978 -10.2114
-10.2247 -10.2378 -10.2507 -10.2635 -10.2762 -10.2888 -10.3013 -10.3138 -10.3263 -10.3387
-10.3513 -10.3638 -10.3764 -10.3891 -10.4018 -10.4146 -10.4276 -10.4406 -10.4537 -10.4669
-10.4801 -10.4933 -10.5064 -10.519 -10.5308 -10.5405 -10.5451 -10.5474 -10.4811 -11.1161
-11.1144 -11.1043 -11.087 -11.0701 -11.0586 -11.0536 -11.0542 -11.0584 -11.0647 -11.0722
-11.0804 -11.0894 -11.0995 -11.1118 -11.1286 -11.1512 -11.1931 -11.2249 -11.4351 -11.1161
-11.1142 -11.1148 -11.1183 -11.1227 -11.1273 -11.1315 -11.1348 -11.1383 -11.1415 -11.1443
-11.148 -11.1527 -11.1589 -11.1671 -11.1769 -11.189 -11.204 -11.2222 -11.2436 -11.2684
-11.2964 -11.3274 -11.361 -11.3968 -11.4343 -11.473 -11.5123 -11.552 -11.5914 -11.6302
-11.668 -11.7046 -11.7395 -11.7725 -11.8033 -11.8316 -11.8571 -11.8796 -11.8985 -11.9136
-11.9245 -11.9307 -11.9318 -11.9273 -11.9166 -11.8992 -11.8747 -11.8423 -11.8015 -11.7517
-11.6924 -11.623 -11.5429 -11.4516 -11.3492 -11.2357 -11.11 -10.9697 -10.8142 -10.6437
-10.4583 -10.258 -10.0429 -9.813 -9.56876 -9.31062 -9.03926 -8.75561 -8.46082 -8.15629
-7.84365 -7.52478 -7.20182 -6.87709 -6.55311 -6.23253 -5.91808 -5.61251 -5.31855 -5.03875
-4.77542 -4.53055 -4.30567 -4.10179 -3.91923 -3.75766 -3.61613 -3.49269 -3.38424 -3.28886
-3.20507 -3.1304 -3.06212 -2.99761 -2.93447 -2.87062 -2.80431 -2.73416 -2.65909 -2.57837
-2.49157 -2.39855 -2.29944 -2.19459 -2.08452 -1.96982 -1.85118 -1.72928 -1.60481 -1.47844
-1.35084 -1.22265 -1.0945 -0.967011 -0.840789 -0.716431 -0.59452 -0.47562 -0.360279 -0.249017
-0.142333 -0.0406974 0.0554468 0.145681 0.229608 0.306851 0.377046 0.439836 0.494869 0.541794
0.580272 0.60998 0.630642 0.642062 0.644171 0.63708 0.62113 0.596917 0.565298 0.527345
0.484272 0.437282 0.387538 0.335724 0.282888 0.227155 0.173475 0.101049 0.0690067 
nut 1 220 float
0 0 0 0 0 0 0 0 0 0 0
0 0 0 0 0 0 0 0 0 0
0 0 0 0 0 0 0 0 0 0
0 0 0 0 0 0 0 0 0 0
0 0 0 0 0 0 0 0 0 0
0 0 0 0 0 0 0 0 0 0
0 0 0 0 0 0 0 0 0 0
0 0 0 0 0 0 0 0 0 0
4.11338e-07 9.45118e-08 6.03186e-07 1.37674e-06 2.25196e-06 3.16346e-06 4.07759e-06 4.97553e-06 5.84725e-06 6.68798e-06
7.49606e-06 8.27163e-06 9.01582e-06 9.73036e-06 1.04172e-05 1.10784e-05 1.17161e-05 1.23323e-05 1.29288e-05 1.35075e-05
1.40698e-05 1.46174e-05 1.51514e-05 1.5673e-05 1.61832e-05 1.66826e-05 1.7172e-05 1.76518e-05 1.81224e-05 1.8584e-05
1.90367e-05 1.94805e-05 1.99154e-05 2.03412e-05 2.07577e-05 2.11645e-05 2.15613e-05 2.19477e-05 2.23232e-05 2.26873e-05
2.30395e-05 2.33795e-05 2.37068e-05 2.40214e-05 2.43238e-05 2.46151e-05 2.48967e-05 2.51697e-05 2.54296e-05 2.56775e-05
2.59133e-05 2.61367e-05 2.63472e-05 2.65442e-05 2.67273e-05 2.68956e-05 2.70486e-05 2.71854e-05 2.73054e-05 2.74078e-05
2.74917e-05 2.75564e-05 2.7601e-05 2.76247e-05 2.76267e-05 2.76062e-05 2.75625e-05 2.74948e-05 2.74025e-05 2.7285e-05
2.7142e-05 2.69734e-05 2.67793e-05 2.65606e-05 2.63185e-05 2.60564e-05 2.57811e-05 2.55099e-05 2.52774e-05 2.50741e-05
2.4874e-05 2.46776e-05 2.44947e-05 2.43387e-05 2.42233e-05 2.41608e-05 2.41595e-05 2.42222e-05 2.43453e-05 2.45193e-05
2.47309e-05 2.49651e-05 2.52079e-05 2.54475e-05 2.56752e-05 2.58852e-05 2.60746e-05 2.6242e-05 2.63876e-05 2.65121e-05
2.66168e-05 2.67029e-05 2.67715e-05 2.68236e-05 2.68601e-05 2.68816e-05 2.68888e-05 2.6882e-05 2.68618e-05 2.68286e-05
2.67829e-05 2.67251e-05 2.66559e-05 2.65757e-05 2.64853e-05 2.63854e-05 2.62766e-05 2.61597e-05 2.60353e-05 2.5904e-05
2.57661e-05 2.56217e-05 2.54705e-05 2.53116e-05 2.51438e-05 2.49653e-05 2.47741e-05 2.4568e-05 2.4345e-05 2.41038e-05
2.38439e-05 2.35656e-05 2.32705e-05 2.29609e-05 2.26396e-05 2.23114e-05 2.19733e-05 2.16718e-05 2.1176e-05 
k 1 220 float
0.19654 0.190708 0.184979 0.178939 0.172743 0.166691 0.161037 0.155956 0.151545 0.14785 0.144878
0.142608 0.141002 0.140013 0.139586 0.139662 0.140182 0.14109 0.14233 0.14385 0.145603
0.147546 0.149639 0.151847 0.15414 0.156491 0.158878 0.16128 0.163681 0.166068 0.168427
0.17075 0.17303 0.17526 0.177437 0.179555 0.181613 0.18361 0.185545 0.187416 0.189226
0.190973 0.192661 0.194284 0.195867 0.197311 0.19908 0.198993 0.207373 0.174984 0.00696637
0.0158187 0.0288127 0.040592 0.0501693 0.0572627 0.0620481 0.0649215 0.0663432 0.0667392 0.0664612
0.0657815 0.0649024 0.0639725 0.0631041 0.0624088 0.0620546 0.0624297 0.072207 0.0760737 0.00696637
0.0139634 0.0187239 0.022474 0.0253106 0.026924 0.0263413 0.0250329 0.0244053 0.0245548 0.0249627
0.0298615 0.0276139 0.031272 0.0373442 0.044973 0.0537966 0.0635691 0.0740898 0.0851956 0.0967556
0.108666 0.120846 0.133233 0.145779 0.158449 0.171219 0.18407 0.196993 0.209981 0.223032
0.236147 0.249327 0.262574 0.27589 0.289276 0.302731 0.316253 0.329836 0.343474 0.357156
0.370869 0.384598 0.398326 0.41203 0.425689 0.439275 0.452761 0.466114 0.479301 0.492288
0.505038 0.517517 0.529696 0.541555 0.553093 0.564335 0.57533 0.586097 0.596457 0.606433
0.616008 0.625157 0.633848 0.642046 0.649714 0.656812 0.663299 0.669133 0.674273 0.678674
0.682296 0.685093 0.687027 0.688055 0.688142 0.687254 0.685359 0.68243 0.678446 0.673398
0.667281 0.660106 0.651906 0.642729 0.63266 0.621859 0.61063 0.599679 0.590379 0.582313
0.57444 0.566767 0.559675 0.553664 0.549243 0.546855 0.546806 0.549201 0.553918 0.560626
0.568843 0.578018 0.587616 0.597174 0.606338 0.614864 0.622605 0.629497 0.635524 0.640707
0.645082 0.648691 0.651576 0.653772 0.655312 0.656221 0.656523 0.656237 0.655383 0.653981
0.652054 0.649623 0.646717 0.643362 0.63959 0.635434 0.630928 0.626105 0.620997 0.61563
0.610022 0.60418 0.598096 0.591742 0.585072 0.578026 0.570529 0.562509 0.553907 0.544687
0.534847 0.524426 0.513499 0.502175 0.490577 0.478883 0.467007 0.456558 0.439662 
epsilon 1 220 float
52.2832 50.7319 49.2078 47.6011 45.953 44.3429 42.839 41.4871 40.3138 39.331 38.5402
37.9363 37.5093 37.2462 37.1325 37.1526 37.2911 37.5326 37.8624 38.2668 38.7331
39.2498 39.8065 40.3939 41.0039 41.6294 42.2643 42.9033 43.542 44.1767 44.8044
45.4224 46.0288 46.6221 47.2009 47.7644 48.3119 48.8431 49.3576 49.8555 50.3368
50.8016 51.2504 51.6823 52.1032 52.4874 52.9577 52.9346 55.1637 46.548 0.464655
1.05375 1.91892 2.70269 3.33961 3.8112 4.12933 4.32045 4.41519 4.44184 4.42376
4.37901 4.32097 4.25951 4.20204 4.15599 4.13252 4.15767 4.80691 5.06177 0.464655
0.170393 0.228073 0.273036 0.306648 0.327952 1.4536 1.41893 1.48344 1.50068 1.40362
0.325108 1.43785 1.75003 2.28411 3.01661 3.9436 5.06172 6.36435 7.84256 9.4862
11.2848 13.2283 15.3072 17.5132 19.8391 22.2786 24.827 27.4804 30.236 33.0919
36.0466 39.0995 42.2499 45.4975 48.8415 52.2813 55.8153 59.4417 63.1579 66.9603
70.8445 74.8052 78.8358 82.9289 87.0756 91.266 95.4891 99.7323 103.982 108.224
112.442 116.623 120.752 124.819 128.821 132.764 136.662 140.507 144.244 147.875
151.389 154.773 158.011 161.086 163.981 166.676 169.153 171.391 173.371 175.073
176.477 177.564 178.317 178.717 178.749 178.399 177.657 176.513 174.962 173.003
170.642 167.888 164.762 161.291 157.519 153.515 149.403 145.457 142.157 139.304
136.556 133.93 131.565 129.629 128.285 127.668 127.858 128.871 130.651 133.079
135.992 139.209 142.557 145.884 149.075 152.051 154.76 157.18 159.304 161.135
162.684 163.962 164.98 165.749 166.278 166.574 166.645 166.497 166.137 165.573
164.812 163.866 162.745 161.46 160.024 158.452 156.757 154.952 153.05 151.062
148.994 146.849 144.623 142.305 139.88 137.325 134.617 131.734 128.66 125.391
121.937 118.32 114.575 110.745 106.879 103.037 99.1927 95.8562 90.5548 
U 3 220 float
0 0 0 0 0 0 0 0 0 0 0
0 0 0 0 0 0 0 0 0 0
0 0 0 0 0 0 0 0 0 0
0 0 0 0 0 0 0 0 0 0
0 0 0 0 0 0 0 0 0 0
0 0 0 0 0 0 0 0 0 0
0 0 0 0 0 0 0 0 0 0
0 0 0 0 0 0 0 0 0 0
0 0 0 0 0 0 0 0 0 0
0 0 0 0 0 0 0 0 0 0
0 0 0 0 0 0 0 0 0 0
0 0 0 0 0 0 0 0 0 0
0 0 0 0 0 0 0 0 0 0
0 0 0 0 0 0 0 0 0 0
0 0 0 0 0 0 0 0 0 0
0 0 0 0 0 0 0 0 0 0
0 0 0 0 0 0 0 0 0 0
0 0 0 0 0 0 0 0 0 0
0 0 0 0 0 0 0 0 0 0
0 0 0 0 0 0 0 0 0 0
0 0 0 0 0 0 0 0 0 0
0 0 0 0 0 0 0 0 0 0
0 0 0 0 0 0 0 0 0 0
0 0 0 0 0 0 0 0 0 0
0 0 0 0 0 0 0 0 0 0
0 0 0 0 0 0 0 0 0 0
0 0 0 0 0 0 0 0 0 0
0 0 0 0 0 0 0 0 0 0
0 0 0 0 0 0 0 0 0 0
0 0 0 0 0 0 0 0 0 0
0 0 0 0 0 0 0 0 0 0
0 0 0 0 0 0 0 0 0 0
0 0 0 0 0 0 0 0 0 0
0 0 0 0 0 0 0 0 0 0
0 0 0 0 0 0 0 0 0 0
0 0 0 0 0 0 0 0 0 0
0 0 0 0 0 0 0 0 0 0
0 0 0 0 0 0 0 0 0 0
0 0 0 0 0 0 0 0 0 0
0 0 0 0 0 0 0 0 0 0
0 0 0 0 0 0 0 0 0 0
0 0 0 0 0 0 0 0 0 0
0 0 0 0 0 0 0 0 0 0
0 0 0 0 0 0 0 0 0 0
0 0 0 0 0 0 0 0 0 0
0 0 0 0 0 0 0 0 0 0
0 0 0 0 0 0 0 0 0 0
0 0 0 0 0 0 0 0 0 0
0 0 0 0 0 0 0 0 0 0
0 0 0 0 0 0 0 0 0 0
0 0 0 0 0 0 0 0 0 0
0 0 0 0 0 0 0 0 0 0
0 0 0 0 0 0 0 0 0 0
0 0 0 0 0 0 0 0 0 0
0 0 0 0 0 0 0 0 0 0
0 0 0 0 0 0 0 0 0 0
0 0 0 0 0 0 0 0 0 0
0 0 0 0 0 0 0 0 0 0
0 0 0 0 0 0 0 0 0 0
0 0 0 0 0 0 0 0 0 0
0 0 0 0 0 0 0 0 0 0
0 0 0 0 0 0 0 0 0 0
0 0 0 0 0 0 0 0 0 0
0 0 0 0 0 0 0 0 0 0
0 0 0 0 0 0 0 0 0 0
0 0 0 0 0 0 0 0 0 
POINT_DATA  442
FIELD attributes 5
p 1 442 float
-7.22701 -7.97062 -7.97062 -7.22701 -9.06428 -9.06428 -9.51889 -9.51889 -9.68759 -9.68759 -9.80203
-9.80203 -9.88391 -9.88391 -9.93696 -9.93696 -9.97526 -9.97526 -10.0067 -10.0067 -10.0336
-10.0336 -10.0568 -10.0568 -10.0776 -10.0776 -10.0967 -10.0967 -10.1144 -10.1144 -10.1311
-10.1311 -10.147 -10.147 -10.1621 -10.1621 -10.1767 -10.1767 -10.1909 -10.1909 -10.2046
-10.2046 -10.2181 -10.2181 -10.2313 -10.2313 -10.2443 -10.2443 -10.2571 -10.2571 -10.2699
-10.2699 -10.2825 -10.2825 -10.2951 -10.2951 -10.3076 -10.3076 -10.3201 -10.3201 -10.3325
-10.3325 -10.345 -10.345 -10.3576 -10.3576 -10.3701 -10.3701 -10.3828 -10.3828 -10.3955
-10.3955 -10.4082 -10.4082 -10.4211 -10.4211 -10.4341 -10.4341 -10.4472 -10.4472 -10.4603
-10.4603 -10.4735 -10.4735 -10.4867 -10.4867 -10.4999 -10.4999 -10.5127 -10.5127 -10.5249
-10.5249 -10.5357 -10.5357 -10.5428 -10.5428 -10.5463 -10.5463 -10.5142 -10.5142 -10.9582
-10.9582 -11.1161 -11.1161 -11.1152 -11.1152 -11.1093 -11.1093 -11.0956 -11.0956 -11.0785
-11.0785 -11.0643 -11.0643 -11.0561 -11.0561 -11.0539 -11.0539 -11.0563 -11.0563 -11.0616
-11.0616 -11.0685 -11.0685 -11.0763 -11.0763 -11.0849 -11.0849 -11.0945 -11.0945 -11.1057
-11.1057 -11.1202 -11.1202 -11.1399 -11.1399 -11.1722 -11.1722 -11.209 -11.209 -11.33
-11.33 -11.1152 -11.1152 -11.1145 -11.1145 -11.1165 -11.1165 -11.1205 -11.1205 -11.125
-11.125 -11.1294 -11.1294 -11.1332 -11.1332 -11.1365 -11.1365 -11.1399 -11.1399 -11.1429
-11.1429 -11.1461 -11.1461 -11.1503 -11.1503 -11.1558 -11.1558 -11.163 -11.163 -11.172
-11.172 -11.183 -11.183 -11.1965 -11.1965 -11.2131 -11.2131 -11.2329 -11.2329 -11.256
-11.256 -11.2824 -11.2824 -11.3119 -11.3119 -11.3442 -11.3442 -11.3789 -11.3789 -11.4155
-11.4155 -11.4536 -11.4536 -11.4926 -11.4926 -11.5321 -11.5321 -11.5717 -11.5717 -11.6108
-11.6108 -11.6491 -11.6491 -11.6863 -11.6863 -11.722 -11.722 -11.756 -11.756 -11.7879
-11.7879 -11.8174 -11.8174 -11.8443 -11.8443 -11.8683 -11.8683 -11.889 -11.889 -11.906
-11.906 -11.919 -11.919 -11.9276 -11.9276 -11.9312 -11.9312 -11.9296 -11.9296 -11.922
-11.922 -11.9079 -11.9079 -11.887 -11.887 -11.8585 -11.8585 -11.8219 -11.8219 -11.7766
-11.7766 -11.7221 -11.7221 -11.6577 -11.6577 -11.583 -11.583 -11.4973 -11.4973 -11.4004
-11.4004 -11.2925 -11.2925 -11.1729 -11.1729 -11.0399 -11.0399 -10.892 -10.892 -10.729
-10.729 -10.551 -10.551 -10.3582 -10.3582 -10.1505 -10.1505 -9.92796 -9.92796 -9.69089
-9.69089 -9.4397 -9.4397 -9.17496 -9.17496 -8.89745 -8.89745 -8.60823 -8.60823 -8.30857
-8.30857 -7.99999 -7.99999 -7.68423 -7.68423 -7.36332 -7.36332 -7.03948 -7.03948 -6.71512
-6.71512 -6.39284 -6.39284 -6.07533 -6.07533 -5.76532 -5.76532 -5.46555 -5.46555 -5.17867
-5.17867 -4.9071 -4.9071 -4.653 -4.653 -4.41813 -4.41813 -4.20374 -4.20374 -4.01052
-4.01052 -3.83846 -3.83846 -3.68691 -3.68691 -3.55442 -3.55442 -3.43847 -3.43847 -3.33656
-3.33656 -3.24697 -3.24697 -3.16774 -3.16774 -3.09627 -3.09627 -3.02987 -3.02987 -2.96605
-2.96605 -2.90255 -2.90255 -2.83747 -2.83747 -2.76924 -2.76924 -2.69663 -2.69663 -2.61874
-2.61874 -2.53498 -2.53498 -2.44507 -2.44507 -2.349 -2.349 -2.24703 -2.24703 -2.13957
-2.13957 -2.02718 -2.02718 -1.91051 -1.91051 -1.79024 -1.79024 -1.66706 -1.66706 -1.54164
-1.54164 -1.41465 -1.41465 -1.28676 -1.28676 -1.15859 -1.15859 -1.03077 -1.03077 -0.903914
-0.903914 -0.778624 -0.778624 -0.65549 -0.65549 -0.535084 -0.535084 -0.417963 -0.417963 -0.304661
-0.304661 -0.195688 -0.195688 -0.0915278 -0.0915278 0.00736258 0.00736258 0.100552 0.100552 0.187634
0.187634 0.268219 0.268219 0.341939 0.341939 0.408433 0.408433 0.467345 0.467345 0.518325
0.518325 0.561028 0.561028 0.595122 0.595122 0.620308 0.620308 0.63635 0.63635 0.643116
0.643116 0.640627 0.640627 0.629107 0.629107 0.609027 0.609027 0.581112 0.581112 0.546328
0.546328 0.505815 0.505815 0.460785 0.460785 0.412418 0.412418 0.36164 0.36164 0.309315
0.309315 0.255031 0.255031 0.200324 0.200324 0.137275 0.137275 0.0850336 0.0850336 0.0690067
0.0690067 
nut 1 442 float
0 0 0 0 0 0 0 0 0 0 0
0 0 0 0 0 0 0 0 0 0
0 0 0 0 0 0 0 0 0 0
0 0 0 0 0 0 0 0 0 0
0 0 0 0 0 0 0 0 0 0
0 0 0 0 0 0 0 0 0 0
0 0 0 0 0 0 0 0 0 0
0 0 0 0 0 0 0 0 0 0
0 0 0 0 0 0 0 0 0 0
0 0 0 0 0 0 0 0 0 0
0 0 0 0 0 0 0 0 0 0
0 0 0 0 0 0 0 0 0 0
0 0 0 0 0 0 0 0 0 0
0 0 0 0 0 0 0 0 0 0
0 0 0 0 0 0 0 0 0 0
0 0 0 0 0 0 0 0 0 0
0 2.05658e-07 2.05658e-07 2.52933e-07 2.52933e-07 3.48835e-07 3.48835e-07 9.89942e-07 9.89942e-07 1.81433e-06
1.81433e-06 2.70768e-06 2.70768e-06 3.6205e-06 3.6205e-06 4.52653e-06 4.52653e-06 5.41136e-06 5.41136e-06 6.26759e-06
6.26759e-06 7.092e-06 7.092e-06 7.88382e-06 7.88382e-06 8.6437e-06 8.6437e-06 9.37307e-06 9.37307e-06 1.00738e-05
1.00738e-05 1.07478e-05 1.07478e-05 1.13972e-05 1.13972e-05 1.20242e-05 1.20242e-05 1.26305e-05 1.26305e-05 1.32181e-05
1.32181e-05 1.37886e-05 1.37886e-05 1.43436e-05 1.43436e-05 1.48844e-05 1.48844e-05 1.54122e-05 1.54122e-05 1.59281e-05
1.59281e-05 1.64329e-05 1.64329e-05 1.69273e-05 1.69273e-05 1.74119e-05 1.74119e-05 1.78871e-05 1.78871e-05 1.83532e-05
1.83532e-05 1.88103e-05 1.88103e-05 1.92586e-05 1.92586e-05 1.96979e-05 1.96979e-05 2.01283e-05 2.01283e-05 2.05494e-05
2.05494e-05 2.09611e-05 2.09611e-05 2.13629e-05 2.13629e-05 2.17545e-05 2.17545e-05 2.21354e-05 2.21354e-05 2.25052e-05
2.25052e-05 2.28634e-05 2.28634e-05 2.32095e-05 2.32095e-05 2.35431e-05 2.35431e-05 2.38641e-05 2.38641e-05 2.41726e-05
2.41726e-05 2.44694e-05 2.44694e-05 2.47559e-05 2.47559e-05 2.50332e-05 2.50332e-05 2.52996e-05 2.52996e-05 2.55535e-05
2.55535e-05 2.57954e-05 2.57954e-05 2.6025e-05 2.6025e-05 2.62419e-05 2.62419e-05 2.64457e-05 2.64457e-05 2.66357e-05
2.66357e-05 2.68114e-05 2.68114e-05 2.69721e-05 2.69721e-05 2.7117e-05 2.7117e-05 2.72454e-05 2.72454e-05 2.73566e-05
2.73566e-05 2.74497e-05 2.74497e-05 2.7524e-05 2.7524e-05 2.75787e-05 2.75787e-05 2.76128e-05 2.76128e-05 2.76257e-05
2.76257e-05 2.76165e-05 2.76165e-05 2.75844e-05 2.75844e-05 2.75287e-05 2.75287e-05 2.74487e-05 2.74487e-05 2.73438e-05
2.73438e-05 2.72135e-05 2.72135e-05 2.70577e-05 2.70577e-05 2.68764e-05 2.68764e-05 2.667e-05 2.667e-05 2.64396e-05
2.64396e-05 2.61875e-05 2.61875e-05 2.59188e-05 2.59188e-05 2.56455e-05 2.56455e-05 2.53937e-05 2.53937e-05 2.51758e-05
2.51758e-05 2.49741e-05 2.49741e-05 2.47758e-05 2.47758e-05 2.45862e-05 2.45862e-05 2.44167e-05 2.44167e-05 2.4281e-05
2.4281e-05 2.41921e-05 2.41921e-05 2.41602e-05 2.41602e-05 2.41908e-05 2.41908e-05 2.42837e-05 2.42837e-05 2.44323e-05
2.44323e-05 2.46251e-05 2.46251e-05 2.4848e-05 2.4848e-05 2.50865e-05 2.50865e-05 2.53277e-05 2.53277e-05 2.55613e-05
2.55613e-05 2.57802e-05 2.57802e-05 2.59799e-05 2.59799e-05 2.61583e-05 2.61583e-05 2.63148e-05 2.63148e-05 2.64498e-05
2.64498e-05 2.65644e-05 2.65644e-05 2.66598e-05 2.66598e-05 2.67372e-05 2.67372e-05 2.67975e-05 2.67975e-05 2.68418e-05
2.68418e-05 2.68708e-05 2.68708e-05 2.68852e-05 2.68852e-05 2.68854e-05 2.68854e-05 2.68719e-05 2.68719e-05 2.68452e-05
2.68452e-05 2.68058e-05 2.68058e-05 2.6754e-05 2.6754e-05 2.66905e-05 2.66905e-05 2.66158e-05 2.66158e-05 2.65305e-05
2.65305e-05 2.64354e-05 2.64354e-05 2.6331e-05 2.6331e-05 2.62182e-05 2.62182e-05 2.60975e-05 2.60975e-05 2.59697e-05
2.59697e-05 2.58351e-05 2.58351e-05 2.56939e-05 2.56939e-05 2.55461e-05 2.55461e-05 2.53911e-05 2.53911e-05 2.52277e-05
2.52277e-05 2.50546e-05 2.50546e-05 2.48697e-05 2.48697e-05 2.46711e-05 2.46711e-05 2.44565e-05 2.44565e-05 2.42244e-05