/*--------------------------------*- C++ -*----------------------------------*\
| =========                 |                                                 |
| \\      /  F ield         | OpenFOAM: The Open Source CFD Toolbox           |
|  \\    /   O peration     | Version:  5.x                                   |
|   \\  /    A nd           | Web:      www.OpenFOAM.org                      |
|    \\/     M anipulation  |                                                 |
\*---------------------------------------------------------------------------*/
FoamFile
{
    version     2.0;
    format      ascii;
    class       volScalarField;
    location    "200";
    object      nut;
}
// * * * * * * * * * * * * * * * * * * * * * * * * * * * * * * * * * * * * * //

dimensions      [0 2 -1 0 0 0 0];

internalField   nonuniform List<scalar> 
11040
(
0.00503919
0.00513651
0.0046143
0.00415946
0.00390831
0.00377198
0.0036467
0.00347345
0.0033116
0.00317075
0.00304622
0.00293498
0.00283522
0.00274548
0.00266469
0.00258934
0.00251314
0.00243913
0.00236758
0.00229914
0.00223348
0.00217273
0.00211709
0.00206438
0.0020135
0.00196719
0.00192629
0.0018896
0.00185558
0.00182312
0.00179166
0.00176058
0.00172919
0.00169667
0.00166214
0.00162508
0.00158336
0.00153847
0.00147517
0.00143924
0.00115644
0.0133688
0.0115911
0.00976514
0.00899202
0.00863704
0.00824426
0.00772874
0.00716145
0.00668047
0.00628121
0.00591678
0.00558132
0.00527875
0.00500254
0.00474653
0.00451706
0.00432946
0.00417664
0.00404349
0.00392095
0.00380716
0.00370606
0.00361868
0.00354398
0.00348061
0.00342086
0.00336052
0.00330258
0.00325091
0.00320679
0.00316976
0.00313893
0.00311363
0.00309325
0.00307767
0.00306613
0.00306055
0.00305507
0.00306557
0.00305544
0.002982
0.0254701
0.0229113
0.0194683
0.0161184
0.0136284
0.0119646
0.0108294
0.00997978
0.00950308
0.0091346
0.00876154
0.00845468
0.00820858
0.00798096
0.00776242
0.0075514
0.0073325
0.00712817
0.00695102
0.00680185
0.0066761
0.00657266
0.00648505
0.00640504
0.00633269
0.00628059
0.00624314
0.00620897
0.00617464
0.00614001
0.00610574
0.00607242
0.0060403
0.00600863
0.00597733
0.00594442
0.00591257
0.00586633
0.0058383
0.00576078
0.00533885
0.0379277
0.0350842
0.0303177
0.0256059
0.0217645
0.0188907
0.016746
0.0150001
0.013611
0.0125323
0.0116627
0.0113098
0.0110905
0.0108372
0.0106072
0.0104232
0.0102356
0.0100476
0.0098752
0.00972506
0.009598
0.00949688
0.0094165
0.00934698
0.00928482
0.00924197
0.0092173
0.00920179
0.00919031
0.0091801
0.00916981
0.00915875
0.00914645
0.00913157
0.00911351
0.00908946
0.00906082
0.00901173
0.00895729
0.0089045
0.00821782
0.0502339
0.0473102
0.0424115
0.0372518
0.0326409
0.028826
0.0257031
0.0229913
0.020679
0.0187571
0.0171608
0.0158811
0.0148785
0.0140672
0.0136769
0.0134871
0.0132542
0.0130312
0.0128498
0.0126957
0.0125661
0.0124659
0.0123898
0.0123272
0.0122733
0.01224
0.0122279
0.0122291
0.0122385
0.0122522
0.0122674
0.012282
0.0122944
0.0123024
0.0123044
0.012297
0.0122799
0.0122395
0.012174
0.0121421
0.0113785
0.0620237
0.0594229
0.0549721
0.0499468
0.0450433
0.0406213
0.0367362
0.0332096
0.0300795
0.0273688
0.0250369
0.0230337
0.0213285
0.0198802
0.0186893
0.0177212
0.0169063
0.0164737
0.0162143
0.0159757
0.0157863
0.0156486
0.0155456
0.0154621
0.0153926
0.0153495
0.0153339
0.0153384
0.0153566
0.0153835
0.015415
0.0154479
0.0154796
0.0155069
0.0155274
0.0155371
0.0155341
0.0155069
0.0154433
0.0154246
0.0146897
0.0730254
0.0709169
0.067196
0.0626311
0.0577395
0.0530332
0.0487038
0.0446657
0.0409755
0.0376854
0.0347539
0.0321339
0.0298196
0.0277862
0.0260092
0.024449
0.0230329
0.021797
0.0207426
0.0200087
0.0196294
0.019367
0.0191538
0.0189804
0.0188422
0.0187482
0.0186968
0.0186778
0.0186812
0.0186994
0.0187266
0.0187589
0.0187926
0.018824
0.0188497
0.0188655
0.0188682
0.0188477
0.018787
0.0187735
0.0181064
0.0830554
0.081452
0.078523
0.0746502
0.0702956
0.0658337
0.0614554
0.0571568
0.0530588
0.0492535
0.0457824
0.0426539
0.0398788
0.0373605
0.0350891
0.0330353
0.0311294
0.029371
0.0277671
0.0263389
0.0251123
0.0241692
0.0235744
0.0231872
0.0229062
0.0227093
0.0225819
0.0225078
0.0224626
0.0224375
0.0224273
0.0224274
0.022434
0.0224416
0.0224464
0.0224433
0.0224288
0.0223936
0.0223193
0.0222928
0.02168
0.0920096
0.0908477
0.0886398
0.0855629
0.0819692
0.0780565
0.0740047
0.0698572
0.0657655
0.0617822
0.0579846
0.0544348
0.0511763
0.0482154
0.0455473
0.0431059
0.0407999
0.0386286
0.036602
0.0347249
0.0329998
0.0314866
0.0302131
0.0291444
0.0283404
0.0278112
0.027464
0.0272251
0.0270555
0.0269326
0.0268416
0.0267715
0.0267163
0.0266648
0.0266124
0.0265553
0.0264893
0.0264055
0.0262854
0.0262162
0.0256044
0.099857
0.0990449
0.0974277
0.0950882
0.0922552
0.0890451
0.0855912
0.0819135
0.0781132
0.074287
0.0705139
0.0668727
0.0634134
0.0601565
0.0571331
0.0543349
0.0517071
0.0492271
0.0468727
0.0446517
0.0425665
0.0406904
0.0390487
0.0375866
0.0362864
0.0351653
0.0342436
0.0335576
0.0330736
0.0327206
0.0324468
0.0322241
0.0320362
0.0318697
0.0317145
0.0315663
0.0314135
0.0312456
0.0310444
0.0309001
0.0302276
0.106624
0.106071
0.104904
0.103176
0.101021
0.0985297
0.0957709
0.0927233
0.0894917
0.0861154
0.0826545
0.0791838
0.0757774
0.0724921
0.0693686
0.066391
0.0635327
0.0608006
0.0582043
0.0557511
0.0534123
0.051276
0.0493806
0.0476699
0.0461142
0.0447158
0.0434705
0.042365
0.0413874
0.0405355
0.039832
0.0392802
0.0388435
0.0384776
0.0381529
0.0378524
0.0375651
0.0372757
0.0369668
0.0367254
0.0359547
0.11238
0.112014
0.11117
0.109924
0.108331
0.106462
0.104323
0.101926
0.0993137
0.0965253
0.0935929
0.0905642
0.0875074
0.0844532
0.0814526
0.0785328
0.0756845
0.0728982
0.0701933
0.0675896
0.0650964
0.062816
0.0607677
0.058897
0.0571786
0.055615
0.0542008
0.0529156
0.0517393
0.0506555
0.0496537
0.0487271
0.0478711
0.047084
0.0463862
0.0457905
0.0452783
0.0448114
0.0443534
0.0439865
0.0431089
0.117229
0.116994
0.116408
0.115513
0.114346
0.112964
0.111357
0.109537
0.107525
0.105339
0.102995
0.100514
0.0979365
0.0953014
0.0926607
0.0900172
0.0873723
0.0847445
0.0821554
0.0796073
0.0771163
0.0747882
0.0726765
0.0707358
0.0689439
0.0673005
0.06581
0.0644422
0.0631774
0.0619999
0.0608962
0.0598548
0.0588656
0.057916
0.0570012
0.0561215
0.0552768
0.0544568
0.0536594
0.0530169
0.0519245
0.121285
0.12114
0.120746
0.1201
0.119245
0.118228
0.117036
0.115678
0.114152
0.112481
0.110674
0.108741
0.106699
0.104581
0.1024
0.100175
0.0979171
0.095625
0.0933158
0.0910078
0.088721
0.0865407
0.0845267
0.0826493
0.0808958
0.0792701
0.077771
0.0763859
0.0751001
0.0738992
0.0727758
0.0717123
0.0706987
0.0697219
0.0687752
0.067855
0.0669582
0.0660692
0.0651799
0.0643741
0.0631183
0.124664
0.124578
0.124305
0.123841
0.123217
0.122469
0.121587
0.120572
0.119437
0.118192
0.116838
0.115378
0.113821
0.11218
0.110468
0.108706
0.106884
0.105011
0.103103
0.101163
0.0992033
0.0973074
0.0955389
0.0938673
0.0922849
0.090798
0.0894087
0.0881101
0.0868931
0.0857484
0.0846675
0.0836418
0.0826692
0.0817326
0.0808261
0.0799469
0.079093
0.0782494
0.077411
0.0766383
0.0755006
0.12747
0.127425
0.127238
0.126902
0.126442
0.125888
0.125234
0.12448
0.123638
0.122716
0.121711
0.120626
0.119465
0.118234
0.116939
0.115589
0.114181
0.112729
0.111231
0.109692
0.108127
0.106591
0.105132
0.103738
0.102406
0.101142
0.0999564
0.0988372
0.0977784
0.0967745
0.0958201
0.0949101
0.09404
0.0932011
0.0923943
0.091614
0.0908587
0.0901154
0.0893824
0.0887018
0.0877636
0.129801
0.129788
0.129656
0.129409
0.129067
0.128655
0.128166
0.127605
0.12698
0.126295
0.125544
0.124734
0.123868
0.12295
0.121984
0.120982
0.119934
0.118842
0.117717
0.116555
0.115358
0.114182
0.113054
0.111966
0.110918
0.109916
0.108962
0.108055
0.107193
0.106376
0.105597
0.104852
0.104137
0.103447
0.10278
0.102139
0.101521
0.100914
0.10032
0.0997646
0.0990429
0.131653
0.131661
0.131565
0.131378
0.131121
0.130808
0.130436
0.130014
0.129538
0.129019
0.12845
0.127839
0.127186
0.126496
0.125771
0.125011
0.124226
0.123409
0.122561
0.12169
0.120793
0.119903
0.119045
0.118214
0.117417
0.116651
0.115918
0.115218
0.114549
0.11391
0.113303
0.112722
0.112164
0.111627
0.111107
0.110609
0.11013
0.109662
0.109205
0.108778
0.108252
0.133069
0.133082
0.133011
0.132869
0.132676
0.132429
0.132137
0.131805
0.131434
0.131028
0.130591
0.130118
0.129614
0.129083
0.128525
0.127943
0.127336
0.126712
0.126065
0.125398
0.124716
0.124039
0.123385
0.12275
0.122137
0.121547
0.120982
0.120445
0.119932
0.119441
0.118972
0.118526
0.118098
0.117687
0.11729
0.116911
0.116548
0.116194
0.115851
0.115532
0.115154
0.134177
0.134193
0.13414
0.13403
0.133875
0.133675
0.133444
0.133176
0.132881
0.132555
0.132205
0.131832
0.131433
0.131013
0.130575
0.130119
0.129645
0.129154
0.128651
0.128134
0.127604
0.12708
0.126575
0.126085
0.125611
0.125155
0.124718
0.1243
0.123904
0.123526
0.123164
0.122821
0.122493
0.122177
0.121877
0.121589
0.121313
0.121048
0.120793
0.120553
0.120282
0.135066
0.135083
0.135042
0.134957
0.134828
0.134664
0.134473
0.134253
0.134011
0.133745
0.13346
0.133157
0.132838
0.132501
0.132149
0.131784
0.131407
0.131018
0.13062
0.130213
0.129796
0.129383
0.128986
0.128603
0.128233
0.127876
0.127535
0.127209
0.1269
0.126606
0.126325
0.126059
0.125805
0.125564
0.125333
0.125113
0.124904
0.124703
0.12451
0.124329
0.124131
0.135793
0.135809
0.135778
0.135706
0.135599
0.135465
0.135305
0.135124
0.134921
0.134702
0.134468
0.134218
0.133954
0.133679
0.133394
0.1331
0.132796
0.132484
0.132165
0.131838
0.131505
0.131175
0.130859
0.130554
0.13026
0.129978
0.129709
0.129451
0.129208
0.128976
0.128757
0.128549
0.128353
0.128165
0.127988
0.127819
0.127659
0.127505
0.127357
0.12722
0.127073
0.136397
0.136411
0.136388
0.136326
0.136238
0.136122
0.135988
0.135835
0.135666
0.135481
0.135284
0.135076
0.134857
0.134628
0.134391
0.134148
0.133898
0.133643
0.133382
0.133117
0.132848
0.132584
0.132331
0.132086
0.13185
0.131624
0.131409
0.131205
0.131011
0.130829
0.130656
0.130493
0.130338
0.130192
0.130053
0.129922
0.129797
0.129678
0.129565
0.129459
0.129349
0.136904
0.136917
0.136897
0.136845
0.136769
0.136671
0.136557
0.136428
0.136284
0.136127
0.135962
0.135785
0.1356
0.135409
0.13521
0.135007
0.134798
0.134586
0.134371
0.134155
0.133937
0.133722
0.133515
0.133316
0.133124
0.132941
0.132768
0.132604
0.13245
0.132303
0.132166
0.132037
0.131915
0.131799
0.131689
0.131585
0.131488
0.131394
0.131306
0.131224
0.13114
0.137336
0.137347
0.137329
0.137287
0.13722
0.137138
0.13704
0.136927
0.136804
0.136669
0.136526
0.136376
0.136219
0.136056
0.135889
0.135718
0.135545
0.135369
0.135191
0.135011
0.13483
0.134653
0.134482
0.134319
0.134161
0.134013
0.133872
0.133739
0.133614
0.133496
0.133385
0.133282
0.133183
0.13309
0.133003
0.13292
0.132842
0.132769
0.132699
0.132635
0.132571
0.137706
0.137716
0.1377
0.137662
0.137606
0.137534
0.137448
0.137351
0.137245
0.137129
0.137007
0.136877
0.136742
0.136603
0.136462
0.136318
0.136171
0.136023
0.135875
0.135724
0.135572
0.135424
0.135282
0.135146
0.135017
0.134894
0.134779
0.134671
0.13457
0.134474
0.134384
0.134299
0.13422
0.134144
0.134073
0.134006
0.133944
0.133885
0.13383
0.133779
0.133729
0.138027
0.138035
0.138021
0.137987
0.137938
0.137874
0.137799
0.137716
0.137622
0.137522
0.137416
0.137304
0.137188
0.137069
0.136948
0.136824
0.136698
0.136572
0.136445
0.136318
0.136192
0.136069
0.135951
0.135839
0.135731
0.13563
0.135535
0.135446
0.135362
0.135283
0.135209
0.135139
0.135073
0.135012
0.134954
0.1349
0.13485
0.134802
0.134758
0.134717
0.134678
0.138306
0.138313
0.1383
0.13827
0.138226
0.13817
0.138104
0.138029
0.137948
0.137861
0.137768
0.13767
0.13757
0.137468
0.137363
0.137256
0.137149
0.137041
0.136934
0.136827
0.136721
0.136617
0.136518
0.136423
0.136334
0.13625
0.136171
0.136096
0.136026
0.13596
0.135899
0.135841
0.135786
0.135735
0.135688
0.135643
0.135602
0.135564
0.135528
0.135495
0.135464
0.13855
0.138556
0.138545
0.138518
0.138479
0.138429
0.138371
0.138305
0.138232
0.138155
0.138074
0.137989
0.137902
0.137813
0.137722
0.13763
0.137538
0.137445
0.137354
0.137262
0.137171
0.137082
0.136998
0.136919
0.136844
0.136774
0.136707
0.136644
0.136585
0.13653
0.136478
0.13643
0.136384
0.136342
0.136303
0.136266
0.136232
0.136201
0.136171
0.136144
0.13612
0.138765
0.13877
0.13876
0.138737
0.138702
0.138658
0.138606
0.138547
0.138483
0.138415
0.138343
0.138268
0.138191
0.138113
0.138033
0.137954
0.137874
0.137794
0.137715
0.137636
0.137558
0.137483
0.137413
0.137346
0.137282
0.137222
0.137165
0.137112
0.137062
0.137015
0.136971
0.13693
0.136892
0.136857
0.136824
0.136794
0.136766
0.13674
0.136715
0.136693
0.136674
0.138955
0.13896
0.138951
0.13893
0.138899
0.13886
0.138814
0.138762
0.138705
0.138645
0.138581
0.138515
0.138447
0.138378
0.138308
0.138238
0.138168
0.138098
0.138029
0.137962
0.137896
0.137832
0.137771
0.137713
0.137658
0.137607
0.137558
0.137513
0.13747
0.13743
0.137393
0.137359
0.137327
0.137297
0.13727
0.137245
0.137221
0.1372
0.13718
0.137162
0.137146
0.139124
0.139128
0.13912
0.139101
0.139074
0.13904
0.138999
0.138953
0.138903
0.13885
0.138793
0.138735
0.138675
0.138613
0.138552
0.13849
0.138429
0.138368
0.138308
0.138249
0.138191
0.138136
0.138083
0.138034
0.137987
0.137942
0.137901
0.137862
0.137825
0.137792
0.13776
0.137731
0.137704
0.137679
0.137656
0.137635
0.137616
0.137598
0.137581
0.137566
0.137554
0.139274
0.139278
0.139271
0.139254
0.139231
0.139201
0.139165
0.139125
0.139081
0.139033
0.138983
0.138931
0.138878
0.138824
0.13877
0.138716
0.138662
0.138608
0.138556
0.138504
0.138454
0.138406
0.138361
0.138318
0.138277
0.138239
0.138203
0.13817
0.138139
0.13811
0.138083
0.138058
0.138035
0.138014
0.137995
0.137977
0.137961
0.137946
0.137933
0.13792
0.13791
0.139408
0.139411
0.139405
0.139392
0.139371
0.139345
0.139314
0.139279
0.13924
0.139199
0.139155
0.139109
0.139062
0.139014
0.138966
0.138918
0.138871
0.138824
0.138778
0.138733
0.13869
0.138648
0.138608
0.138571
0.138536
0.138503
0.138472
0.138443
0.138417
0.138392
0.138369
0.138348
0.138329
0.138311
0.138295
0.13828
0.138266
0.138254
0.138243
0.138232
0.138224
0.139528
0.139531
0.139526
0.139515
0.139498
0.139476
0.139449
0.139419
0.139385
0.139348
0.13931
0.139269
0.139228
0.139186
0.139144
0.139102
0.13906
0.139019
0.138979
0.13894
0.138902
0.138865
0.138831
0.138799
0.138768
0.13874
0.138713
0.138689
0.138666
0.138645
0.138625
0.138607
0.138591
0.138575
0.138562
0.138549
0.138538
0.138527
0.138518
0.13851
0.138503
0.139635
0.139638
0.139635
0.139626
0.139612
0.139594
0.139572
0.139545
0.139516
0.139485
0.139451
0.139416
0.13938
0.139343
0.139306
0.13927
0.139233
0.139197
0.139162
0.139128
0.139095
0.139063
0.139034
0.139006
0.138979
0.138955
0.138932
0.138911
0.138891
0.138873
0.138856
0.138841
0.138827
0.138814
0.138802
0.138792
0.138782
0.138774
0.138766
0.138759
0.138754
0.139731
0.139734
0.139732
0.139726
0.139716
0.139702
0.139683
0.139661
0.139637
0.13961
0.139582
0.139552
0.139521
0.139489
0.139457
0.139425
0.139393
0.139362
0.139332
0.139302
0.139274
0.139247
0.139221
0.139197
0.139174
0.139153
0.139133
0.139115
0.139098
0.139083
0.139069
0.139056
0.139044
0.139033
0.139023
0.139015
0.139007
0.139
0.138994
0.138988
0.138984
0.139817
0.13982
0.139821
0.139817
0.13981
0.139799
0.139785
0.139768
0.139748
0.139727
0.139703
0.139678
0.139653
0.139626
0.139599
0.139572
0.139545
0.139519
0.139493
0.139468
0.139444
0.139421
0.139399
0.139379
0.13936
0.139342
0.139325
0.13931
0.139296
0.139283
0.139272
0.139261
0.139252
0.139243
0.139236
0.139229
0.139224
0.139219
0.139215
0.139212
0.13921
0.139893
0.139897
0.139899
0.139898
0.139894
0.139887
0.139877
0.139865
0.139851
0.139835
0.139818
0.139799
0.139779
0.139759
0.139738
0.139716
0.139695
0.139674
0.139653
0.139633
0.139614
0.139596
0.139579
0.139563
0.139548
0.139535
0.139522
0.139511
0.139501
0.139492
0.139484
0.139477
0.139472
0.139467
0.139463
0.139461
0.139459
0.139458
0.139457
0.139458
0.139459
0.139955
0.139959
0.139962
0.139963
0.139961
0.139958
0.139953
0.139946
0.139938
0.139929
0.139919
0.139908
0.139895
0.139883
0.139869
0.139856
0.139842
0.139829
0.139815
0.139803
0.139791
0.13978
0.13977
0.13976
0.139752
0.139744
0.139737
0.139731
0.139726
0.139722
0.139719
0.139716
0.139714
0.139713
0.139712
0.139712
0.139712
0.139713
0.139715
0.139716
0.139719
0.139993
0.139996
0.139997
0.139998
0.139997
0.139996
0.139994
0.139991
0.139988
0.139984
0.139979
0.139974
0.139969
0.139963
0.139956
0.13995
0.139944
0.139937
0.139931
0.139925
0.13992
0.139914
0.139909
0.139905
0.139901
0.139897
0.139894
0.139891
0.139888
0.139886
0.139885
0.139883
0.139882
0.139882
0.139881
0.139881
0.139881
0.139882
0.139882
0.139883
0.139884
0.140011
0.140013
0.140015
0.140015
0.140016
0.140015
0.140015
0.140014
0.140013
0.140011
0.14001
0.140007
0.140005
0.140002
0.14
0.139997
0.139994
0.139991
0.139988
0.139985
0.139982
0.13998
0.139978
0.139976
0.139974
0.139972
0.13997
0.139969
0.139968
0.139967
0.139966
0.139965
0.139965
0.139964
0.139964
0.139964
0.139964
0.139964
0.139965
0.139965
0.139966
0.14002
0.140022
0.140023
0.140024
0.140025
0.140026
0.140026
0.140026
0.140026
0.140026
0.140026
0.140025
0.140025
0.140024
0.140023
0.140022
0.140021
0.14002
0.140019
0.140018
0.140017
0.140016
0.140015
0.140014
0.140014
0.140013
0.140012
0.140012
0.140011
0.140011
0.140011
0.140011
0.140011
0.140011
0.140011
0.140011
0.140011
0.140011
0.140012
0.140012
0.140012
0.140024
0.140025
0.140026
0.140027
0.140028
0.14003
0.140031
0.140031
0.140032
0.140033
0.140034
0.140034
0.140034
0.140035
0.140035
0.140035
0.140035
0.140035
0.140035
0.140035
0.140035
0.140036
0.140036
0.140036
0.140036
0.140036
0.140036
0.140036
0.140036
0.140036
0.140036
0.140037
0.140037
0.140037
0.140037
0.140037
0.140038
0.140038
0.140038
0.140039
0.140039
0.140023
0.140024
0.140025
0.140026
0.140028
0.140029
0.14003
0.140031
0.140032
0.140034
0.140035
0.140036
0.140037
0.140037
0.140038
0.140039
0.14004
0.140041
0.140041
0.140042
0.140043
0.140043
0.140044
0.140044
0.140045
0.140045
0.140046
0.140046
0.140047
0.140047
0.140048
0.140048
0.140049
0.140049
0.140049
0.14005
0.14005
0.14005
0.140051
0.140051
0.140051
0.14002
0.140021
0.140021
0.140022
0.140023
0.140025
0.140026
0.140027
0.140028
0.140029
0.14003
0.140031
0.140032
0.140033
0.140034
0.140035
0.140036
0.140037
0.140037
0.140038
0.140039
0.14004
0.14004
0.140041
0.140042
0.140043
0.140043
0.140044
0.140044
0.140045
0.140046
0.140046
0.140046
0.140047
0.140047
0.140048
0.140048
0.140048
0.140049
0.140049
0.140049
0.140014
0.140014
0.140015
0.140015
0.140016
0.140017
0.140018
0.140019
0.14002
0.14002
0.140021
0.140022
0.140022
0.140023
0.140023
0.140023
0.140023
0.140023
0.140023
0.140022
0.140021
0.140021
0.14002
0.140019
0.140019
0.140018
0.140018
0.140018
0.140018
0.140019
0.140019
0.140019
0.140019
0.14002
0.14002
0.14002
0.14002
0.14002
0.14002
0.14002
0.140021
0.140005
0.140005
0.140005
0.140006
0.140006
0.140006
0.140007
0.140007
0.140007
0.140008
0.140008
0.140008
0.140008
0.140008
0.140007
0.140006
0.140005
0.140003
0.14
0.139994
0.139985
0.139977
0.139968
0.139961
0.139954
0.139947
0.139942
0.139936
0.139932
0.139927
0.139923
0.13992
0.139917
0.139914
0.139911
0.139909
0.139907
0.139905
0.139903
0.139901
0.1399
0.00301821
0.0046277
0.00606372
0.00739067
0.00862531
0.00979031
0.010906
0.011984
0.0130309
0.0140524
0.0150549
0.0160431
0.0170252
0.0180101
0.0190048
0.0200144
0.0210426
0.0220926
0.0231674
0.0242693
0.0254015
0.0265681
0.0277725
0.0290169
0.0303023
0.031629
0.0329966
0.0344049
0.0358542
0.0373447
0.0388755
0.0404455
0.0420526
0.0436949
0.0453706
0.0470781
0.0488156
0.0505811
0.0523724
0.0541868
0.0560191
0.0578627
0.0597162
0.0615976
0.0635575
0.0656755
0.0680323
0.0706659
0.0735423
0.0765644
0.0796105
0.0825762
0.0853945
0.088035
0.0904929
0.0927769
0.0949017
0.0968835
0.0987384
0.100481
0.102124
0.10368
0.105158
0.106568
0.107916
0.109211
0.110458
0.111661
0.112825
0.113956
0.115048
0.116148
0.117053
0.118679
0.00445326
0.00605535
0.00757227
0.00890018
0.0100915
0.0112094
0.0122769
0.0133023
0.0142919
0.0152524
0.016191
0.0171121
0.0180265
0.0189445
0.019872
0.0208125
0.0217691
0.0227445
0.0237419
0.0247633
0.0258133
0.0268972
0.0280191
0.0291811
0.0303841
0.0316286
0.0329142
0.0342416
0.035612
0.037026
0.038483
0.0399817
0.0415198
0.0430956
0.0447078
0.046355
0.0480354
0.0497469
0.0514873
0.0532535
0.0550406
0.0568415
0.0586547
0.0604989
0.062428
0.0645283
0.0668884
0.069552
0.0724848
0.0755829
0.078715
0.0817676
0.0846674
0.0873811
0.0899026
0.0922409
0.094411
0.09643
0.0983147
0.10008
0.101741
0.103308
0.104793
0.106204
0.107551
0.108841
0.110079
0.111272
0.112424
0.113541
0.114617
0.1157
0.116592
0.118191
0.00689558
0.00838052
0.00970604
0.0108677
0.0119519
0.0130022
0.0140074
0.0149677
0.0158902
0.0167824
0.0176518
0.0185004
0.0193462
0.0201978
0.0210578
0.0219276
0.0228092
0.0237053
0.024619
0.0255518
0.026511
0.0275038
0.0285338
0.0296027
0.0307111
0.0318598
0.0330485
0.0342796
0.0355558
0.036878
0.0382457
0.0396576
0.041111
0.0426048
0.0441384
0.0457111
0.047321
0.0489656
0.0506425
0.0523488
0.0540798
0.0558287
0.0575928
0.0593887
0.0612686
0.0633207
0.0656412
0.0682842
0.0712246
0.0743606
0.077556
0.0806877
0.0836733
0.0864723
0.0890743
0.0914859
0.0937214
0.0957977
0.0977317
0.0995392
0.101234
0.102829
0.104336
0.105764
0.107122
0.108418
0.109658
0.110849
0.111996
0.113106
0.114172
0.115243
0.116125
0.1177
0.00953395
0.010966
0.0122852
0.0134381
0.0144615
0.0154096
0.016308
0.0171677
0.0179963
0.0187995
0.0195829
0.0203447
0.0211185
0.0219017
0.0226903
0.0234841
0.0242848
0.0250945
0.0259166
0.0267512
0.027612
0.0285064
0.0294356
0.0304002
0.0314005
0.0324379
0.033512
0.034629
0.0357931
0.0370053
0.0382645
0.0395694
0.0409171
0.0423079
0.0437431
0.0452221
0.0467427
0.0483023
0.0498978
0.0515271
0.0531864
0.0548693
0.0565715
0.058305
0.0601155
0.0620879
0.0643226
0.066888
0.0697767
0.0728996
0.0761222
0.0793139
0.0823807
0.085271
0.0879665
0.0904687
0.092789
0.0949429
0.0969468
0.0988163
0.100566
0.102207
0.103753
0.105214
0.106599
0.107915
0.109171
0.110373
0.111525
0.112637
0.113702
0.114768
0.115645
0.117202
0.0124302
0.0137096
0.0149596
0.0161045
0.0171382
0.018087
0.0189723
0.0198084
0.0206061
0.0213733
0.0221161
0.0228367
0.0235468
0.0242534
0.0249588
0.0256645
0.026372
0.0270835
0.0278018
0.0285255
0.0292828
0.0300731
0.0308926
0.0317405
0.0326177
0.0335259
0.034465
0.0354491
0.0364822
0.0375632
0.0386903
0.0398631
0.0410774
0.0423383
0.0436491
0.0450089
0.0464147
0.0478636
0.0493524
0.0508801
0.0524447
0.0540405
0.0556615
0.0573138
0.0590328
0.0608939
0.0629967
0.0654235
0.0681912
0.0712342
0.0744297
0.0776446
0.080773
0.0837494
0.0865432
0.0891476
0.0915686
0.0938187
0.0959125
0.0978646
0.0996888
0.101398
0.103003
0.104516
0.105945
0.107299
0.108586
0.109813
0.110986
0.112112
0.113187
0.114259
0.115139
0.116689
0.0155355
0.0166446
0.0177683
0.0188418
0.0198495
0.0208002
0.0217015
0.0225587
0.0233776
0.0241636
0.0249212
0.0256536
0.0263655
0.0270619
0.0277466
0.0284224
0.0290913
0.0297553
0.0304166
0.0310756
0.0317426
0.0324244
0.0331232
0.0338406
0.034578
0.0353376
0.0361204
0.0369576
0.037842
0.0387691
0.0397374
0.0407477
0.0417941
0.0428939
0.0440495
0.0452578
0.0465151
0.0478184
0.0491648
0.0505567
0.051994
0.0534717
0.0549826
0.0565266
0.058127
0.059845
0.0617722
0.0639989
0.0665687
0.0694488
0.0725403
0.075717
0.0788648
0.0819028
0.0847849
0.0874919
0.0900215
0.0923809
0.0945812
0.0966347
0.0985536
0.10035
0.102035
0.10362
0.105114
0.106526
0.107863
0.109133
0.110343
0.111499
0.112599
0.113689
0.114585
0.116145
0.0188068
0.019771
0.0207677
0.0217433
0.0226842
0.0235965
0.0244848
0.0253494
0.0261906
0.0270088
0.0278048
0.028579
0.0293326
0.0300671
0.0307844
0.0314862
0.0321739
0.032849
0.0335129
0.0341662
0.0348122
0.0354551
0.0360988
0.0367459
0.0373987
0.0380598
0.0387302
0.039423
0.0401442
0.0408954
0.0416776
0.0424935
0.0433335
0.0442457
0.045215
0.0462348
0.0473023
0.0484155
0.0495734
0.0507858
0.0520535
0.0533705
0.0547292
0.0561247
0.0575703
0.0591106
0.060821
0.0627902
0.0650826
0.0677027
0.0705887
0.073635
0.0767282
0.0797742
0.0827098
0.0854999
0.0881307
0.0906008
0.0929154
0.0950825
0.0971116
0.0990132
0.100798
0.102475
0.104054
0.105544
0.106951
0.108285
0.10955
0.110756
0.111898
0.113024
0.113949
0.115541
0.0222804
0.0231373
0.024035
0.0249258
0.0257961
0.0266509
0.0274962
0.0283341
0.0291648
0.0299879
0.0308024
0.0316067
0.0323996
0.0331797
0.0339463
0.0346987
0.0354366
0.0361598
0.0368682
0.0375616
0.0382405
0.0389063
0.0395603
0.0402046
0.0408409
0.0414712
0.0420968
0.0427226
0.0433541
0.0439954
0.0446496
0.0453206
0.0460056
0.0467226
0.047478
0.0482728
0.0491073
0.0499813
0.0508994
0.0518882
0.0529387
0.0540426
0.0551935
0.0563847
0.0576259
0.0589477
0.0604024
0.0620634
0.0640033
0.0662599
0.0688184
0.0716096
0.0745342
0.0774938
0.0804097
0.0832305
0.0859279
0.0884885
0.090908
0.0931873
0.0953313
0.0973474
0.0992442
0.10103
0.102712
0.104298
0.105795
0.107212
0.108554
0.109829
0.111033
0.112216
0.113187
0.114838
0.0261331
0.0269176
0.0277478
0.0285778
0.0293938
0.0301974
0.0309944
0.0317883
0.0325815
0.0333752
0.03417
0.0349653
0.0357601
0.0365529
0.0373418
0.0381251
0.0389009
0.0396675
0.0404231
0.0411663
0.0418958
0.0426105
0.0433099
0.0439939
0.0446626
0.0453162
0.0459554
0.0465814
0.0471969
0.0478045
0.0484072
0.0490081
0.0496083
0.0502138
0.0508315
0.0514664
0.0521221
0.0528012
0.0535067
0.0542518
0.0550421
0.0558782
0.0567587
0.0576784
0.0586579
0.0597172
0.0608778
0.0621884
0.0637139
0.065512
0.0676169
0.070005
0.0726071
0.0753354
0.0781057
0.0808556
0.0835421
0.0861363
0.0886203
0.0909843
0.0932263
0.0953493
0.0973577
0.0992563
0.10105
0.102744
0.104347
0.105863
0.107299
0.108663
0.109949
0.111208
0.112244
0.113985
0.0306922
0.0314229
0.0322035
0.0329875
0.0337611
0.034523
0.0352769
0.0360263
0.0367735
0.0375208
0.0382701
0.0390225
0.0397785
0.0405382
0.041301
0.042066
0.0428319
0.043597
0.0443594
0.0451173
0.0458685
0.0466109
0.0473428
0.0480624
0.0487681
0.0494587
0.0501332
0.0507909
0.0514316
0.0520557
0.0526643
0.0532586
0.0538399
0.0544103
0.0549732
0.0555326
0.0560922
0.0566554
0.0572253
0.0578081
0.0584105
0.0590374
0.0596922
0.0603747
0.0610923
0.0618582
0.062689
0.0636154
0.0646848
0.0659589
0.0675165
0.0693633
0.0714693
0.0737769
0.076216
0.0787317
0.0812703
0.0837855
0.086243
0.0886192
0.0909046
0.0930951
0.0951882
0.0971822
0.0990771
0.100876
0.102585
0.104208
0.105748
0.107213
0.108596
0.109949
0.111063
0.112926
0.0363436
0.0370149
0.0377422
0.0384772
0.0392065
0.0399264
0.0406379
0.0413425
0.0420419
0.0427377
0.0434317
0.0441255
0.0448203
0.045517
0.0462164
0.0469188
0.0476245
0.0483331
0.0490441
0.0497568
0.0504698
0.0511819
0.0518914
0.0525965
0.0532954
0.0539863
0.0546673
0.0553366
0.0559927
0.0566342
0.0572599
0.0578692
0.0584617
0.0590374
0.0595971
0.0601419
0.0606737
0.0611945
0.0617065
0.0622127
0.0627171
0.0632241
0.0637377
0.0642608
0.064797
0.065353
0.065939
0.0665721
0.0672811
0.0681079
0.069113
0.0703402
0.0718069
0.0735007
0.0753892
0.0774623
0.0796556
0.0819104
0.0841794
0.0864278
0.0886433
0.0908111
0.0929168
0.0949481
0.0968983
0.0987683
0.10056
0.102275
0.103911
0.105473
0.106954
0.108407
0.109609
0.111614
0.0433945
0.043981
0.0446352
0.0453056
0.0459768
0.0466424
0.0473007
0.0479516
0.0485956
0.0492332
0.0498652
0.0504924
0.0511156
0.0517358
0.052354
0.052971
0.0535876
0.0542046
0.0548226
0.0554419
0.0560629
0.0566855
0.0573097
0.0579349
0.0585605
0.0591855
0.0598088
0.0604291
0.0610449
0.0616545
0.0622563
0.0628489
0.0634304
0.0639995
0.064555
0.0650961
0.0656224
0.0661337
0.0666305
0.0671133
0.0675835
0.0680429
0.068494
0.0689389
0.0693802
0.0698211
0.0702665
0.0707244
0.0712093
0.0717439
0.0723643
0.0731115
0.0740215
0.0751152
0.0763951
0.0778619
0.0794936
0.0812543
0.0831024
0.0850065
0.0869727
0.0889614
0.0909411
0.0928874
0.0947891
0.0966472
0.0984566
0.10021
0.101899
0.103526
0.105081
0.10662
0.107898
0.110044
0.0520681
0.0525374
0.0530842
0.0536511
0.0542236
0.054798
0.0553726
0.0559456
0.056514
0.0570757
0.0576295
0.0581754
0.0587137
0.0592452
0.0597704
0.0602902
0.0608051
0.0613157
0.061823
0.0623277
0.0628307
0.0633328
0.0638349
0.0643376
0.0648414
0.0653467
0.0658538
0.0663627
0.0668731
0.0673845
0.0678963
0.0684075
0.0689171
0.0694238
0.0699261
0.0704226
0.0709118
0.0713922
0.0718627
0.0723223
0.0727702
0.073206
0.0736298
0.074042
0.074443
0.0748341
0.0752166
0.0755935
0.0759703
0.0763566
0.0767694
0.0772329
0.0777758
0.078426
0.0792042
0.0801257
0.0811956
0.0824067
0.0837405
0.0851741
0.0866978
0.0882921
0.0899328
0.0915919
0.0932683
0.0949708
0.0966728
0.098354
0.0999957
0.101604
0.103168
0.10474
0.106054
0.108295
0.0629683
0.063129
0.0633579
0.0636256
0.0639686
0.0643792
0.064824
0.0652771
0.0657262
0.0661694
0.066608
0.0670423
0.067472
0.067896
0.0683134
0.0687235
0.0691265
0.0695227
0.0699129
0.0702978
0.070678
0.0710543
0.0714274
0.0717981
0.0721671
0.0725352
0.0729033
0.0732723
0.0736428
0.0740155
0.074391
0.0747696
0.0751515
0.0755365
0.0759243
0.0763145
0.0767064
0.0770989
0.077491
0.0778814
0.0782687
0.0786515
0.0790287
0.0793991
0.0797617
0.0801158
0.0804608
0.0807966
0.0811241
0.0814457
0.0817671
0.0820981
0.0824537
0.0828525
0.0833139
0.0838567
0.0844964
0.0852429
0.0860984
0.0870576
0.0881145
0.0892604
0.090483
0.0917635
0.0930901
0.0944611
0.0958657
0.0972892
0.0987074
0.100155
0.101611
0.103108
0.10437
0.106588
0.0752402
0.0752432
0.075298
0.0753665
0.0754456
0.0755383
0.0756476
0.0757745
0.0759421
0.0761774
0.0764569
0.0767544
0.0770543
0.077349
0.077637
0.0779199
0.0781992
0.0784751
0.0787475
0.0790158
0.0792795
0.0795381
0.0797917
0.0800405
0.0802852
0.0805263
0.0807647
0.0810011
0.0812363
0.081471
0.0817059
0.0819421
0.0821802
0.082421
0.0826653
0.0829137
0.0831667
0.0834245
0.0836873
0.0839551
0.0842273
0.0845035
0.0847828
0.0850641
0.0853465
0.0856285
0.0859091
0.0861869
0.0864608
0.0867303
0.0869956
0.0872588
0.0875246
0.0878007
0.0880977
0.088428
0.0888051
0.0892417
0.0897481
0.0903307
0.0909927
0.0917342
0.0925531
0.0934423
0.0943933
0.0954006
0.0964586
0.0975594
0.0986864
0.0998467
0.10103
0.102279
0.103338
0.105324
0.0874481
0.087337
0.0872634
0.0871983
0.0871385
0.087086
0.0870432
0.087012
0.086994