/*--------------------------------*- C++ -*----------------------------------*\
| =========                 |                                                 |
| \\      /  F ield         | OpenFOAM: The Open Source CFD Toolbox           |
|  \\    /   O peration     | Version:  5.x                                   |
|   \\  /    A nd           | Web:      www.OpenFOAM.org                      |
|    \\/     M anipulation  |                                                 |
\*---------------------------------------------------------------------------*/
FoamFile
{
    version     2.0;
    format      ascii;
    class       volScalarField;
    location    "200";
    object      p;
}
// * * * * * * * * * * * * * * * * * * * * * * * * * * * * * * * * * * * * * //

dimensions      [0 2 -2 0 0 0 0];

internalField   nonuniform List<scalar> 
11040
(
-0.00539434
-386.614
-512.973
-480.702
-422.178
-375.14
-340.76
-311.247
-269.955
-226.869
-188.422
-154.505
-123.856
-95.9631
-70.9939
-49.0496
-28.1695
-4.52269
19.7271
43.2577
66.1735
87.7999
107.64
126.23
144.043
161.165
176.244
189.447
201.687
213.267
224.258
234.766
244.92
254.845
264.626
274.348
284.012
293.997
303.71
315.426
322.533
155.494
-116.886
-287
-351.689
-359.321
-343.95
-322.507
-299.108
-264.476
-225.352
-188.376
-154.953
-124.495
-96.621
-71.488
-49.2002
-28.1219
-4.76781
19.2717
42.7249
65.6085
87.2077
107.047
125.639
143.413
160.466
175.585
188.875
201.179
212.807
223.839
234.384
244.567
254.516
264.318
274.057
283.732
293.736
303.417
315.357
321.883
230.622
10.2432
-177.626
-281.4
-314.609
-312.645
-298.477
-280.518
-253.244
-219.099
-184.493
-152.339
-122.728
-95.3829
-70.4531
-48.093
-27.0712
-4.23348
19.4863
42.7938
65.572
87.0943
106.882
125.428
143.111
160.054
175.202
188.563
200.901
212.551
223.604
234.166
244.364
254.324
264.133
273.876
283.546
293.55
303.191
315.233
321.63
272.861
109.533
-57.3276
-178.745
-241.051
-262.379
-262.878
-254.104
-235.561
-208.204
-177.601
-147.696
-119.505
-93.0717
-68.6076
-46.3402
-25.4371
-3.17574
20.0994
43.158
65.756
87.1371
106.822
125.281
142.838
159.633
174.778
188.198
200.565
212.235
223.307
233.886
244.094
254.061
263.87
273.607
283.261
293.237
302.823
314.791
321.052
296.401
177.72
44.1493
-75.0877
-157.016
-200.911
-218.158
-220.396
-211.311
-192.048
-166.934
-140.335
-114.247
-89.2141
-65.5759
-43.6512
-22.9914
-1.41393
21.2258
43.8851
66.2003
87.3598
106.879
125.199
142.586
159.185
174.288
187.757
200.154
211.837
222.924
233.512
243.724
253.685
263.481
273.192
282.803
292.705
302.189
313.862
319.819
308.668
221.883
120.131
16.4867
-69.8986
-128.909
-162.206
-177.306
-179.069
-169.263
-151.256
-129.327
-106.271
-83.2774
-60.9534
-39.7453
-19.5447
1.23177
23.0473
45.1317
67.0359
87.8745
107.145
125.256
142.416
158.764
173.772
187.264
199.678
211.362
222.448
233.033
243.232
253.17
262.929
272.582
282.111
291.87
301.182
312.314
317.925
313.86
249.134
173.324
90.4544
11.6019
-52.6037
-97.469
-124.842
-137.994
-138.603
-129.208
-113.514
-94.6944
-74.596
-54.2297
-34.2398
-14.8256
4.98797
25.7761
47.0701
68.3958
88.7849
107.701
125.514
142.379
158.416
173.26
186.729
199.135
210.796
221.859
232.418
242.58
252.465
262.151
271.701
281.091
290.618
299.661
310.026
315.315
314.807
265.462
208.928
145.48
79.9521
19.4698
-29.7981
-65.6799
-88.771
-99.596
-99.6295
-91.5711
-78.3717
-62.2687
-44.6987
-26.5862
-8.43625
10.1606
29.6955
49.9447
70.4698
90.2385
108.663
126.064
142.548
158.205
172.803
186.18
198.536
210.14
221.143
231.64
241.728
251.518
261.081
270.463
279.637
288.826
297.482
306.91
311.926
313.245
274.824
232.084
184.199
132.68
81.086
34.102
-4.83446
-34.3394
-53.4793
-62.4388
-62.6224
-56.1773
-45.2341
-31.4662
-16.0701
0.161009
17.1485
35.1497
54.061
73.5139
92.4502
110.213
127.057
143.045
158.235
172.489
185.679
197.916
209.408
220.3
230.684
240.645
250.28
259.652
268.788
277.651
286.389
294.544
302.947
307.747
310.289
279.81
246.903
210.631
171.146
129.76
89.1227
52.0868
20.6112
-3.47996
-19.3027
-27.0067
-27.6199
-22.6545
-13.6391
-1.86861
11.6587
26.482
42.5626
59.7861
77.8412
95.6817
112.575
128.687
144.038
158.651
172.444
185.325
197.344
208.646
219.355
229.555
239.316
248.723
257.822
266.62
275.074
283.259
290.82
298.209
302.818
306.664
282.096
256.294
228.471
198.353
166.186
133.16
101.036
71.3901
46.072
26.4723
13.295
6.53242
5.536
9.29284
16.7049
26.7579
38.7703
52.445
67.5676
83.8363
100.251
116.016
131.186
145.727
159.627
172.826
185.256
196.93
207.935
218.364
228.286
237.759
246.847
255.58
263.948
271.9
279.464
286.381
292.848
297.243
302.84
282.777
262.214
240.539
217.407
192.666
166.724
140.47
114.855
91.2543
70.9781
55.0523
44.0886
38.183
36.9771
39.814
45.8968
54.5349
65.3006
77.8773
91.9366
106.547
120.872
134.842
148.36
161.374
173.822
185.64
196.816
207.388
217.417
226.95
236.027
244.694
252.966
260.817
268.198
275.11
281.376
287.058
291.2
299.121
282.567
265.956
248.816
230.837
211.768
191.67
170.922
149.986
129.703
111.015
94.8501
82.0071
72.9907
67.9564
66.7337
68.8925
73.9247
81.4369
91.091
102.547
114.971
127.519
139.997
152.242
164.157
175.662
186.683
197.183
207.164
216.648
225.661
234.223
242.362
250.079
257.343
264.106
270.366
276.009
281.043
284.916
295.686
281.924
268.363
254.632
240.48
225.662
210.111
193.958
177.382
160.832
144.881
130.181
117.427
107.217
99.9558
95.8163
94.7199
96.4263
100.699
107.284
115.888
125.823
136.286
146.986
157.698
168.281
178.628
188.646
198.273
207.478
216.255
224.602
232.522
240.025
247.105
253.723
259.845
265.47
270.533
275.027
278.638
292.632
281.133
269.973
258.859
247.592
235.962
223.869
211.338
198.411
185.308
172.337
159.896
148.472
138.565
130.613
124.933
121.667
120.805
122.293
126.019
131.797
139.129
147.32
156.025
164.981
174.016
182.996
191.806
200.361
208.604
216.503
224.035
231.185
237.95
244.315
250.247
255.715
260.729
265.252
269.279
272.63
290.023
280.388
271.15
262.079
253.019
243.8
234.324
224.572
214.537
204.315
194.063
184.001
174.43
165.7
158.165
152.141
147.85
145.406
144.89
146.317
149.623
154.513
160.448
167.089
174.174
181.516
188.968
196.402
203.714
210.83
217.698
224.279
230.544
236.48
242.068
247.275
252.08
256.494
260.501
264.094
267.173
287.914
279.832
272.161
264.715
257.376
250.007
242.521
234.887
227.08
219.142
211.147
203.213
195.515
188.274
181.736
176.148
171.722
168.608
166.94
166.81
168.24
171.11
175.045
179.761
185.027
190.666
196.539
202.516
208.487
214.371
220.105
225.64
230.939
235.981
240.745
245.201
249.33
253.146
256.64
259.804
262.582
286.309
279.464
273.012
266.809
260.764
254.762
248.73
242.637
236.456
230.205
223.92
217.667
211.547
205.699
200.283
195.474
191.436
188.302
186.206
185.259
185.529
186.997
189.429
192.608
196.351
200.51
204.963
209.595
214.303
219.005
223.639
228.153
232.508
236.68
240.646
244.378
247.86
251.103
254.099
256.843
259.297
285.114
279.229
273.712
268.449
263.37
258.376
253.406
248.43
243.425
238.396
233.363
228.362
223.459
218.739
214.309
210.29
206.8
203.943
201.832
200.569
200.227
200.841
202.268
204.352
206.956
209.965
213.278
216.8
220.442
224.131
227.808
231.426
234.947
238.346
241.6
244.686
247.588
250.313
252.855
255.205
257.338
284.23
279.109
274.327
269.797
265.459
261.232
257.058
252.915
248.779
244.653
240.548
236.485
232.506
228.67
225.048
221.722
218.777
216.291
214.351
213.039
212.423
212.554
213.345
214.686
216.478
218.633
221.075
223.725
226.512
229.373
232.258
235.124
237.939
240.679
243.322
245.849
248.244
250.511
252.645
254.637
256.466
283.57
279.072
274.884
270.939
267.19
263.562
260.008
256.505
253.035
249.597
246.197
242.849
239.583
236.436
233.46
230.712
228.252
226.137
224.43
223.197
222.493
222.369
222.771
223.62
224.847
226.386
228.178
230.162
232.281
234.485
236.732
238.986
241.219
243.41
245.54
247.591
249.552
251.423
253.198
254.869
256.42
283.078
279.095
275.398
271.932
268.658
265.512
262.45
259.452
256.504
253.602
250.751
247.959
245.246
242.642
240.181
237.904
235.854
234.072
232.606
231.503
230.806
230.562
230.734
231.265
232.105
233.206
234.521
236.007
237.616
239.309
241.053
242.818
244.581
246.325
248.032
249.689
251.285
252.818
254.284
255.675
256.977
282.71
279.162
275.875
272.806
269.925
267.172
264.509
261.919
259.388
256.914
254.496
252.144
249.87
247.695
245.646
243.75
242.041
240.546
239.3
238.34
237.696
237.408
237.448
237.776
238.353
239.144
240.114
241.229
242.453
243.755
245.108
246.49
247.88
249.264
250.629
251.963
253.256
254.508
255.712
256.862
257.947
282.437
279.259
276.318
273.584
271.031
268.605
266.271
264.015
261.824
259.694
257.627
255.627
253.704
251.874
250.156
248.57
247.139
245.886
244.834
244.01
243.436
243.145
243.114
243.311
243.711
244.284
245.005
245.847
246.782
247.787
248.84
249.923
251.02
252.119
253.21
254.282
255.329
256.348
257.334
258.282
259.181
282.237
279.375
276.731
274.282
272.006
269.854
267.795
265.816
263.905
262.059
260.278
258.565
256.927
255.376
253.926
252.591
251.39
250.337
249.451
248.749
248.249
247.975
247.908
248.024
248.303
248.723
249.264
249.905
250.625
251.404
252.227
253.079
253.947
254.822
255.694
256.557
257.404
258.233
259.039
259.819
260.562
282.091
279.503
277.114
274.91
272.871
270.952
269.125
267.378
265.702
264.092
262.547
261.069
259.665
258.342
257.111
255.983
254.97
254.084
253.336
252.741
252.31
252.062
251.981
252.047
252.244
252.555
252.966
253.458
254.016
254.625
255.272
255.945
256.635
257.334
258.034
258.73
259.416
260.091
260.75
261.391
262.004
281.988
279.638
277.471
275.478
273.642
271.922
270.293
268.744
267.265
265.852
264.505
263.224
262.013
260.878
259.828
258.869
258.012
257.263
256.632
256.128
255.76
255.541
255.457
255.492
255.633
255.867
256.182
256.564
257.001
257.481
257.992
258.528
259.079
259.64
260.204
260.767
261.324
261.874
262.414
262.941
263.448
281.917
279.775
277.802
275.993
274.333
272.784
271.325
269.944
268.633
267.388
266.207
265.09
264.041
263.063
262.162
261.345
260.616
259.982
259.448
259.022
258.709
258.519
258.438
258.454
258.557
258.735
258.98
259.28
259.625
260.005
260.413
260.842
261.285
261.737
262.194
262.651
263.105
263.555
263.998
264.433
264.851
281.872
279.912
278.108
276.459
274.953
273.553
272.24
271.004
269.837
268.734
267.695
266.717
265.804
264.958
264.183
263.482
262.861
262.322
261.87
261.51
261.244
261.08
261.006
261.011
261.087
261.226
261.418
261.656
261.931
262.235
262.563
262.909
263.267
263.633
264.005
264.377
264.749
265.119
265.483
265.842
266.188
281.845
280.046
278.391
276.883
275.51
274.24
273.054
271.944
270.9
269.921
269.002
268.143
267.345
266.61
265.94
265.338
264.807
264.348
263.965
263.659
263.434
263.294
263.228
263.227
263.285
263.394
263.547
263.737
263.958
264.204
264.47
264.75
265.041
265.34
265.644
265.949
266.255
266.559
266.86
267.157
267.445
281.834
280.175
278.652
277.267
276.012
274.855
273.781
272.779
271.843
270.969
270.154
269.397
268.698
268.058
267.477
266.958
266.503
266.111
265.785
265.526
265.336
265.217
265.159
265.156
265.2
265.287
265.41
265.564
265.744
265.944
266.16
266.389
266.627
266.872
267.122
267.373
267.625
267.877
268.126
268.373
268.612
281.833
280.299
278.892
277.616
276.464
275.407
274.429
273.523
272.681
271.899
271.174
270.504
269.89
269.33
268.826
268.377
267.986
267.651
267.374
267.155
266.993
266.893
266.844
266.839
266.874
266.944
267.045
267.171
267.317
267.481
267.659
267.847
268.043
268.245
268.451
268.659
268.867
269.076
269.283
269.489
269.688
281.84
280.417
279.111
277.932
276.87
275.901
275.008
274.185
273.425
272.724
272.077
271.484
270.942
270.452
270.013
269.625
269.288
269.002
268.765
268.58
268.444
268.359
268.318
268.313
268.341
268.399
268.482
268.585
268.706
268.842
268.988
269.144
269.306
269.473
269.644
269.816
269.989
270.163
270.336
270.507
270.673
281.854
280.527
279.312
278.218
277.236
276.343
275.526
274.777
274.088
273.457
272.879
272.351
271.873
271.443
271.061
270.724
270.434
270.189
269.988
269.831
269.716
269.646
269.611
269.607
269.631
269.679
269.747
269.834
269.934
270.046
270.168
270.297
270.432
270.571
270.713
270.856
271.001
271.146
271.29
271.434
271.573
281.871
280.63
279.495
278.475
277.564
276.739
275.988
275.303
274.678
274.109
273.591
273.121
272.698
272.321
271.987
271.695
271.445
271.235
271.064
270.931
270.835
270.777
270.748
270.745
270.765
270.806
270.864
270.936
271.02
271.114
271.215
271.323
271.435
271.551
271.67
271.79
271.91
272.032
272.152
272.273
272.389
281.891
280.725
279.66
278.706
277.857
277.092
276.399
275.772
275.203
274.688
274.222
273.804
273.429
273.097
272.806
272.553
272.337
272.158
272.013
271.901
271.821
271.773
271.749
271.748
271.766
271.801
271.85
271.911
271.981
272.06
272.145
272.235
272.33
272.427
272.526
272.626
272.727
272.829
272.93
273.031
273.129
281.912
280.811
279.808
278.912
278.117
277.405
276.764
276.187
275.667
275.201
274.782
274.408
274.076
273.784
273.53
273.311
273.126
272.972
272.85
272.756
272.69
272.65
272.632
272.632
272.648
272.678
272.72
272.772
272.832
272.898
272.97
273.046
273.125
273.206
273.29
273.374
273.459
273.544
273.629
273.713
273.795
281.933
280.89
279.94
279.094
278.347
277.681
277.086
276.553
276.078
275.654
275.276
274.942
274.648
274.391
274.17
273.98
273.821
273.691
273.588
273.51
273.455
273.424
273.411
273.412
273.427
273.454
273.49
273.535
273.586
273.642
273.703
273.767
273.834
273.903
273.973
274.043
274.115
274.186
274.258
274.329
274.397
281.954
280.959
280.056
279.254
278.548
277.923
277.368
276.875
276.438
276.052
275.711
275.412
275.152
274.926
274.733
274.57
274.434
274.324
274.238
274.174
274.13
274.105
274.096
274.099
274.113
274.137
274.169
274.207
274.251
274.299
274.35
274.405
274.461
274.519
274.578
274.637
274.697
274.757
274.817
274.877
274.934
281.974
281.021
280.157
279.392
278.722
278.132
277.611
277.153
276.751
276.399
276.091
275.824
275.593
275.395
275.228
275.088
274.973
274.881
274.809
274.757
274.723
274.705
274.699
274.704
274.718
274.74
274.769
274.803
274.841
274.882
274.927
274.973
275.021
275.07
275.12
275.171
275.221
275.272
275.322
275.372
275.421
281.992
281.073
280.242
279.509
278.869
278.309
277.82
277.392
277.021
276.698
276.42
276.181
275.976
275.804
275.659
275.54
275.443
275.367
275.309
275.267
275.241
275.228
275.226
275.232
275.246
275.267
275.292
275.322
275.355
275.391
275.429
275.468
275.509
275.55
275.593
275.635
275.677
275.72
275.762
275.804
275.844
282.008
281.116
280.312
279.605
278.991
278.457
277.993
277.593
277.248
276.953
276.7
276.486
276.306
276.156
276.032
275.931
275.851
275.789
275.744
275.713
275.694
275.688
275.69
275.699
275.714
275.734
275.759
275.786
275.816
275.848
275.881
275.916
275.951
275.987
276.023
276.06
276.096
276.132
276.167
276.203
276.237
282.022
281.15
280.366
279.679
279.085
278.573
278.133
277.756
277.435
277.163
276.935
276.743
276.585
276.455
276.35
276.266
276.201
276.152
276.117
276.094
276.082
276.079
276.084
276.094
276.109
276.127
276.149
276.174
276.201
276.229
276.258
276.287
276.318
276.348
276.379
276.409
276.44
276.47
276.5
276.529
276.557
282.033
281.174
280.405
279.733
279.155
278.66
278.238
277.882
277.582
277.331
277.124
276.953
276.815
276.703
276.616
276.548
276.497
276.461
276.438
276.426
276.423
276.428
276.438
276.453
276.471
276.492
276.515
276.54
276.566
276.592
276.619
276.646
276.674
276.701
276.728
276.754
276.781
276.807
276.832
276.857
276.881
282.041
281.191
280.431
279.77
279.203
278.721
278.314
277.974
277.691
277.459
277.27
277.118
276.997
276.903
276.83
276.777
276.738
276.712
276.696
276.69
276.69
276.697
276.708
276.722
276.74
276.76
276.781
276.803
276.827
276.851
276.875
276.899
276.923
276.946
276.97
276.993
277.015
277.037
277.059
277.08
277.1
282.047
281.196
280.441
279.785
279.227
278.755
278.36
278.033
277.765
277.549
277.376
277.24
277.135
277.056
277
276.962
276.939
276.929
276.928
276.936
276.949
276.968
276.989
277.012
277.036
277.061
277.086
277.112
277.137
277.161
277.185
277.208
277.231
277.253
277.274
277.295
277.315
277.334
277.352
277.37
277.387
282.046
281.182
280.42
279.762
279.204
278.738
278.353
278.039
277.786
277.586
277.429
277.309
277.219
277.154
277.109
277.081
277.065
277.059
277.061
277.07
277.083
277.101
277.121
277.143
277.166
277.191
277.216
277.241
277.265
277.289
277.311
277.334
277.355
277.375
277.395
277.414
277.432
277.449
277.466
277.481
277.496
282.039
281.154
280.376
279.707
279.144
278.678
278.298
277.993
277.752
277.565
277.424
277.322
277.252
277.209
277.187
277.182
277.192
277.212
277.239
277.272
277.308
277.345
277.382
277.419
277.453
277.486
277.516
277.544
277.571
277.596
277.62
277.642
277.663
277.682
277.701
277.718
277.734
277.749
277.764
277.777
277.79
358.64
329.893
313.929
312.487
310.074
306.148
303.025
300.718
298.726
296.946
295.397
294.052
292.869
291.823
290.896
290.071
289.337
288.68
288.092
287.565
287.091
286.665
286.282
285.936
285.624
285.343
285.088
284.858
284.649
284.46
284.289
284.134
283.993
283.865
283.749
283.643
283.547
283.459
283.379
283.306
283.239
283.178
283.123
283.072
283.025
282.983
282.943
282.906
282.871
282.837
282.804
282.773
282.744
282.717
282.692
282.669
282.648
282.629
282.61
282.592
282.573
282.555
282.535
282.515
282.494
282.471
282.446
282.42
282.392
282.363
282.327
282.302
282.243
282.276
355.768
329.669
313.879
312.301
309.889
305.978
302.874
300.579
298.595
296.822
295.279
293.94
292.764
291.723
290.8
289.981
289.25
288.598
288.014
287.491
287.021
286.599
286.219
285.876
285.567
285.288
285.036
284.809
284.603
284.416
284.247
284.094
283.955
283.829
283.714
283.61
283.516
283.429
283.351
283.279
283.214
283.154
283.1
283.05
283.005
282.963
282.924
282.888
282.854
282.82
282.789
282.758
282.73
282.703
282.68
282.657
282.637
282.618
282.6
282.582
282.564
282.546
282.527
282.507
282.486
282.463
282.439
282.413
282.385
282.356
282.321
282.295
282.236
282.272
352.164
329.435
313.837
312.029
309.674
305.791
302.699
300.418
298.445
296.68
295.145
293.814
292.644
291.609
290.692
289.878
289.153
288.506
287.927
287.408
286.942
286.524
286.148
285.809
285.503
285.228
284.979
284.754
284.551
284.367
284.201
284.05
283.913
283.789
283.677
283.575
283.482
283.397
283.32
283.25
283.186
283.128
283.075
283.026
282.982
282.941
282.904
282.868
282.835
282.802
282.771
282.742
282.714
282.689
282.666
282.644
282.625
282.607
282.589
282.572
282.554
282.536
282.518
282.498
282.477
282.455
282.431
282.405
282.377
282.349
282.314
282.288
282.228
282.267
347.717
328.809
313.76
311.656
309.399
305.573
302.491
300.228
298.27
296.515
294.99
293.668
292.506
291.479
290.569
289.762
289.043
288.401
287.828
287.314
286.854
286.44
286.068
285.734
285.432
285.16
284.915
284.694
284.494
284.313
284.149
284.001
283.867
283.746
283.635
283.535
283.444
283.362
283.287
283.218
283.156
283.099
283.048
283
282.957
282.918
282.881
282.847
282.814
282.783
282.752
282.724
282.697
282.673
282.651
282.63
282.611
282.594
282.577
282.56
282.543
282.526
282.508
282.489
282.468
282.446
282.423
282.397
282.37
282.341
282.306
282.281
282.22
282.261
342.506
327.611
313.601
311.128
309
305.292
302.229
299.988
298.054
296.316
294.804
293.494
292.343
291.326
290.425
289.626
288.915
288.281
287.714
287.207
286.753
286.345
285.978
285.648
285.352
285.084
284.843
284.626
284.43
284.252
284.092
283.947
283.816
283.697
283.589
283.492
283.403
283.323
283.25
283.183
283.123
283.068
283.018
282.972
282.93
282.892
282.856
282.823
282.791
282.761
282.732
282.705
282.679
282.656
282.635
282.615
282.597
282.58
282.564
282.548
282.532
282.515
282.497
282.479
282.459
282.437
282.414
282.389
282.361
282.333
282.298
282.273
282.211
282.256
336.706
325.641
313.194
310.365
308.39
304.893
301.878
299.671
297.775
296.064
294.572
293.28
292.144
291.141
290.253
289.465
288.764
288.14
287.582
287.083
286.636
286.235
285.875
285.551
285.26
284.998
284.762
284.549
284.358
284.184
284.028
283.887
283.759
283.643
283.539
283.444
283.358
283.28
283.209
283.145
283.087
283.034
282.985
282.941
282.901
282.864
282.83
282.798
282.767
282.738
282.71
282.684
282.66
282.637
282.617
282.598
282.581
282.566
282.55
282.535
282.519
282.503
282.486
282.468
282.448
282.427
282.404
282.38
282.352
282.324
282.29
282.265
282.202
282.25
330.448
322.753
312.329
309.283
307.461
304.282
301.376
299.225
297.393
295.729
294.271
293.006
291.894
290.911
290.041
289.268
288.582
287.97
287.423
286.935
286.498
286.106
285.754
285.438
285.154
284.899
284.669
284.462
284.275
284.107
283.955
283.818
283.695
283.583
283.482
283.39
283.307
283.232
283.164
283.103
283.047
282.996
282.949
282.907
282.869
282.833
282.801
282.77
282.741
282.713
282.686
282.662
282.638
282.617
282.598
282.58
282.564
282.549
282.535
282.52
282.505
282.49
282.474
282.456
282.437
282.417
282.394
282.37
282.343
282.315
282.281
282.256
282.192
282.243
323.833
318.907
310.788
307.782
306.111
303.347
300.64
298.583
296.848
295.262
293.859
292.638
291.565
290.613
289.769
289.02
288.354
287.76
287.23
286.756
286.331
285.951
285.61
285.304
285.029
284.782
284.56
284.36
284.18
284.018
283.872
283.74
283.621
283.514
283.417
283.33
283.251
283.179
283.114
283.055
283.002
282.954
282.91
282.87
282.834
282.8
282.769
282.74
282.712
282.686
282.661
282.637
282.615
282.595
282.578
282.561
282.546
282.532
282.518
282.505
282.491
282.476
282.46
282.444
282.425
282.405
282.383
282.359
282.333
282.305
282.272
282.246
282.182
282.235
316.954
314.176
308.39
305.742
304.254
301.971
299.575
297.672
296.071
294.602
293.285
292.133
291.117
290.214
289.411
288.696
288.06
287.492
286.985
286.531
286.125
285.761
285.435
285.142
284.88
284.643
284.431
284.24
284.069
283.914
283.775
283.65
283.537
283.435
283.344
283.261
283.186
283.119
283.058
283.002
282.952
282.907
282.866
282.829
282.795
282.763
282.734
282.707
282.681
282.656
282.633
282.611
282.591
282.572
282.556
282.54
282.526
282.513
282.5
282.488
282.475
282.461
282.446
282.43
282.412
282.393
282.371
282.348
282.322
282.295
282.262
282.236
282.172
282.227
309.907
308.722
305.052
303.045
301.826
300.061
298.083
296.413
294.995
293.687
292.496
291.442
290.509
289.675
288.93
288.266
287.673
287.142
286.668
286.243
285.863
285.522
285.216
284.941
284.695
284.474
284.275
284.096
283.935
283.791
283.661
283.544
283.438
283.344
283.258
283.181
283.112
283.049
282.993
282.942
282.896
282.854
282.816
282.782
282.751
282.722
282.696
282.671
282.647
282.625
282.603
282.583
282.564
282.547
282.532
282.517
282.505
282.493
282.481
282.47
282.458
282.445
282.431
282.415
282.398
282.38
282.359
282.336
282.311
282.284
282.251
282.225
282.161
282.217
302.798
302.751
300.825
299.617
298.788
297.56
296.08
294.733
293.555
292.458
291.437
290.519
289.697
288.957
288.293
287.697
287.163
286.685
286.255
285.87
285.525
285.215
284.937
284.687
284.463
284.262
284.081
283.918
283.772
283.64
283.522
283.416
283.32
283.235
283.157
283.088
283.025
282.969
282.918
282.872
282.831
282.794
282.76
282.729
282.702
282.676
282.653
282.63
282.609
282.589
282.57
282.552
282.535
282.519
282.506
282.493
282.482
282.471
282.461
282.45
282.439
282.427
282.414
282.399
282.383
282.365
282.345
282.323
282.298
282.272
282.239
282.214
282.15
282.206
295.726
296.468
295.868
295.474
295.136
294.455
293.515
292.57
291.697
290.859
290.058
289.316
288.641
288.026
287.467
286.962
286.506
286.095
285.725
285.392
285.093
284.824
284.582
284.365
284.17
283.994
283.837
283.695
283.568
283.454
283.352
283.26
283.177
283.103
283.036
282.976
282.922
282.873
282.83
282.791
282.755
282.723
282.695
282.669
282.645
282.623
282.603
282.584
282.566
282.549
282.533
282.517
282.503
282.489
282.477
282.466
282.457
282.447
282.438
282.429
282.419
282.408
282.396
282.382
282.367
282.35
282.331
282.309
282.285
282.259
282.227
282.202
282.139
282.193
288.774
290.054
290.402
290.728
290.918
290.78
290.384
289.891
289.378
288.849
288.313
287.793
287.303
286.845
286.421
286.03
285.674
285.35
285.055
284.789
284.548
284.331
284.136
283.96
283.802
283.66
283.533
283.418
283.316
283.224
283.141
283.067
283.001
282.941
282.888
282.84
282.797
282.759
282.724
282.693
282.666
282.641
282.618
282.598
282.579
282.562
282.547
282.532
282.518
282.504
282.491
282.478
282.466
282.455
282.446
282.437
282.429
282.421
282.414
282.406
282.397
282.387
282.376
282.364
282.35
282.334
282.315
282.295
282.271
282.246
282.214
282.189
282.128
282.178
282.044
283.678
284.674
285.567
286.251
286.622
286.74
286.711
286.593
286.408
286.174
285.915
285.647
285.381
285.122
284.875
284.642
284.426
284.226
284.043
283.876
283.724
283.586
283.462
283.35
283.249
283.159
283.078
283.005
282.94
282.882
282.831
282.785
282.744
282.707
282.675
282.646
282.62
282.597
282.576
282.558
282.542
282.527
282.514
282.502
282.491
282.481
282.471
282.461
282.451
282.442
282.433
282.425
282.417
282.41
282.404
282.398
282.392
282.386
282.38
282.373
282.365
282.355
282.344
282.331
282.316
282.298
282.279
282.256
282.231
282.201
282.175
282.117
282.16
275.689
277.532
278.946
280.241
281.326
282.132
282.705
283.11
283.386
283.558
283.647
283.674
283.659
283.614
283.548
283.471
283.387
283.301
283.216
283.134
283.057
282.984
282.917
282.856
282.8
282.75
282.705
282.665
282.629
282.597
282.57
282.545
282.524
282.505
282.489
282.475
282.463
282.452
282.443
282.436
282.429
282.423
282.418
282.414
282.41
282.406
282.403
282.399
282.395
282.39
282.386
282.381
282.377
282.373
282.369
282.366
282.362
282.359
282.356
282.352
282.346
282.34
282.332
282.322
282.31
282.297
282.28
282.262
282.24
282.216
282.186
282.16
282.106
282.139
269.927
271.855
273.502
275.041
276.401
277.536
278.47
279.24
279.871
280.381
280.785
281.104
281.353
281.547
281.695
281.809
281.895
281.961
282.01
282.047
282.076
282.098
282.116
282.13
282.142
282.152
282.161
282.17
282.179
282.187
282.195
282.204
282.212
282.22
282.229
282.237
282.245
282.253
282.261
282.268
282.275
282.282
282.289
282.295
282.301
282.306
282.311
282.314
282.317
282.319
282.32
282.321
282.321
282.321
282.322
282.322
282.322
282.322
282.321
282.319
282.316
282.312
282.306
282.298
282.288
282.275
282.26
282.243
282.222
282.199
282.17
282.144
282.095
282.116
265.033
266.929
268.653
270.291
271.793
273.128
274.305
275.342
276.25
277.039
277.718
278.302
278.803
279.231
279.597
279.909
280.177
280.407
280.605
280.776
280.925
281.056
281.171
281.273
281.364
281.445
281.519
281.585
281.646
281.702
281.753
281.8
281.843
281.883
281.921
281.955
281.987
282.017
282.045
282.07
282.094
282.116
282.137
282.155
282.173
282.188
282.202
282.215
282.226
282.235
282.243
282.25
282.256
282.262
282.267
282.272
282.276
282.279
282.281
282.283
282.282
282.28
282.277
282.271
282.263
282.252
282.239
282.223
282.203
282.181
282.154
282.127
282.084
282.09
261.438
263.207
264.878
266.487
268.003
269.404
270.693
271.873
272.947
273.919
274.793
275.576
276.275
276.897
277.45
277.94
278.374
278.76
279.102
279.407
279.678
279.919
280.136
280.33
280.505
280.663
280.806
280.935
281.053
281.16
281.259
281.348
281.431
281.506
281.576
281.64
281.699
281.753
281.803
281.849
281.891
281.93
281.966
281.998
282.029
282.056
282.081
282.103
282.123
282.141
282.157
282.171
282.184
282.195
282.206
282.215
282.223
282.231
282.237
282.242
282.244
282.245
282.244
282.241
282.235
282.226
282.215
282.2
282.182
282.162
282.135
282.109
282.071
282.063
259.182
260.768
262.306
263.803
265.243
266.61
267.903
269.119
270.257
271.314
272.293
273.194
274.021
274.776
275.464
276.089
276.656
277.17
277.634
278.054
278.434
278.777
279.088
279.37
279.625
279.857
280.068
280.26
280.435
280.595
280.741
280.874
280.997
281.109
281.211
281.306
281.393
281.472
281.545
281.613
281.674
281.731
281.783
281.831
281.875
281.915
281.951
281.984
282.014
282.04
282.064
282.086
282.106
282.123
282.139
282.154
282.167
282.179
282.189
282.197
282.204
282.208
282.209
282.208
282.205
282.199
282.189
282.176
282.16
282.141
282.116
282.09
282.057
282.035
258.034
259.412
260.774
262.115
263.424
264.693
265.918
267.093
268.216
269.283
270.291
271.24
272.128
272.956
273.726
274.439
275.098
275.704
276.262
276.773
277.242
277.671
278.064
278.423
278.751
279.051
279.325
279.577
279.806
280.017
280.209
280.386
280.548
280.697
280.833
280.959
281.074
281.179
281.276
281.365
281.447
281.522
281.591
281.655
281.712
281.765
281.814
281.858
281.897
281.934
281.966
281.996
282.023
282.047
282.069
282.089
282.108
282.124
282.138
282.15
282.16
282.167
282.172
282.174
282.173
282.169
282.162
282.151
282.136
282.118
282.095
282.07
282.04
282.007
257.737
258.906
260.076
261.241
262.394
263.53
264.644
265.731
266.786
267.807
268.788
269.728
270.624
271.474
272.278
273.034
273.744
274.408
275.028
275.604
276.138
276.633
277.091
277.514
277.903
278.263
278.593
278.898
279.178
279.436
279.673
279.891
280.091
280.275
280.445
280.601
280.744
280.876
280.997
281.108
281.21
281.304
281.39
281.47
281.542
281.609
281.669
281.725
281.775
281.821
281.863
281.901
281.935
281.966
281.995
282.021
282.045
282.066
282.084
282.1
282.114
282.125
282.133
282.138
282.139
282.138
282.133
282.124
282.111
282.095
282.073
282.048
282.021
281.98
258.073
259.044
260.027
261.016
262.005
262.993
263.975
264.947
265.904
266.842
267.759
268.649
269.511
270.342
271.139
271.901
272.626
273.314
273.964
274.577
275.152
275.692
276.196
276.666
277.104
277.511
277.888
278.238
278.562
278.862
279.139
279.395
279.631
279.849
280.05
280.235
280.406
280.563
280.708
280.842
280.965
281.078
281.181
281.277
281.364
281.445
281.518
281.585
281.647
281.703
281.754
281.8
281.843
281.881
281.916
281.949
281.978
282.004
282.027
282.048
282.065
282.08
282.091
282.099
282.104
282.105
282.102
282.095
282.085
282.07
282.05
282.025
281.999
281.955
258.853
259.646
260.457
261.28
262.113
262.953
263.798
264.643
265.487
266.324
267.152
267.968
268.768
269.549
270.309
271.045
271.755
272.438
273.091
273.715
274.308
274.87
275.401
275.901
276.372
276.813
277.226
277.612
277.971
278.306
278.618
278.907
279.175
279.424
279.654
279.867
280.064
280.246
280.414
280.569
280.712
280.844
280.965
281.077
281.18
281.274
281.36
281.44
281.512
281.579
281.639
281.695
281.745
281.792
281.834
281.872
281.907
281.939
281.967
281.992
282.014
282.032
282.047
282.058
282.066
282.07
282.07
282.065
282.056
282.043
282.025
282.001
281.975
281.93
259.925
260.566
261.225
261.9
262.589
263.291
264.004
264.725
265.451