/*--------------------------------*- C++ -*----------------------------------*\
| =========                 |                                                 |
| \\      /  F ield         | OpenFOAM: The Open Source CFD Toolbox           |
|  \\    /   O peration     | Version:  5.x                                   |
|   \\  /    A nd           | Web:      www.OpenFOAM.org                      |
|    \\/     M anipulation  |                                                 |
\*---------------------------------------------------------------------------*/
FoamFile
{
    version     2.0;
    format      ascii;
    class       surfaceScalarField;
    location    "200";
    object      phi;
}
// * * * * * * * * * * * * * * * * * * * * * * * * * * * * * * * * * * * * * //

dimensions      [0 3 -1 0 0 0 0];

internalField   nonuniform List<scalar> 
21876
(
0.0430245
-0.010183
-0.0328409
0.0438903
-0.000865675
0.0395034
0.004387
0.0345902
0.00491329
0.0312527
0.00333746
0.0297415
0.00151123
0.0290078
0.000733672
0.0279439
0.00106398
0.0270141
0.000929776
0.0262238
0.000790283
0.0255397
0.000684089
0.0249409
0.000598854
0.024411
0.000529908
0.0239542
0.000456702
0.0235548
0.000399405
0.0230889
0.000465985
0.022446
0.00064289
0.0217919
0.000654113
0.0211552
0.000636697
0.0205411
0.000614069
0.0199447
0.000596393
0.0194043
0.000540452
0.0188805
0.000523729
0.0183486
0.000531934
0.01783
0.000518637
0.0174101
0.000419899
0.0170583
0.000351739
0.0167282
0.000330097
0.0164059
0.000322329
0.0160804
0.000325485
0.0157442
0.000336202
0.0153909
0.000353277
0.0150132
0.000377703
0.0145997
0.000413547
0.0141418
0.000457893
0.0136268
0.000515026
0.0130366
0.000590165
0.012332
0.000704601
0.0115108
0.000821193
0.0102333
0.00127751
0.00134651
0.00888679
0.0433008
-0.0198518
-0.0336319
0.0469438
-0.00450861
0.0482494
0.00308141
0.0480525
0.00511026
0.0467775
0.0046125
0.0450991
0.00318971
0.043358
0.00247473
0.0414507
0.00297129
0.0397502
0.0026303
0.0382662
0.00227424
0.0369434
0.00200691
0.0357666
0.00177568
0.0347253
0.00157124
0.0338129
0.0013691
0.0330229
0.00118941
0.0322803
0.00120861
0.0314612
0.00146198
0.0306266
0.00148868
0.0297853
0.001478
0.0289482
0.00145116
0.0281223
0.00142233
0.0273757
0.00128708
0.026675
0.00122438
0.0259917
0.00121527
0.0253198
0.00119051
0.0247223
0.00101743
0.0241981
0.000875958
0.0237203
0.000807815
0.0232736
0.000769069
0.0228423
0.000756794
0.0224137
0.000764755
0.0219775
0.000789497
0.0215238
0.000831401
0.0210388
0.000898517
0.0205138
0.000982905
0.0199337
0.00109518
0.0192883
0.00123557
0.0185099
0.00148298
0.0176732
0.00165791
0.0164173
0.00253336
0.00447977
0.0132841
0.0478736
-0.0312351
-0.0364904
0.0550708
-0.0117057
0.0582016
-4.93727e-05
0.059099
0.00421293
0.0587242
0.00498726
0.0576593
0.00425466
0.0562029
0.0039311
0.0543398
0.00483437
0.0524177
0.00455237
0.0506038
0.00408822
0.0489194
0.00369124
0.0473797
0.00331544
0.0459917
0.00295921
0.0447558
0.00260494
0.0436585
0.00228676
0.0426181
0.00224902
0.041524
0.0025561
0.0404406
0.00257205
0.039378
0.00254067
0.0383343
0.00249477
0.0373073
0.00244943
0.036376
0.00221832
0.0355001
0.00210027
0.0346525
0.00206287
0.0338339
0.00200915
0.0331042
0.00174707
0.0324562
0.00152399
0.0318582
0.00140587
0.0312936
0.00133362
0.0307474
0.00130301
0.0302062
0.00130598
0.0296582
0.00133751
0.0290916
0.00139797
0.0284897
0.00150037
0.0278426
0.00163007
0.027133
0.0018047
0.0263486
0.00201998
0.0254207
0.00241095
0.0243831
0.00269548
0.0230041
0.00391231
0.00771196
0.0197719
0.0521189
-0.0432806
-0.0400734
0.0614976
-0.0210844
0.066827
-0.0053788
0.0691863
0.00185367
0.0698428
0.00433076
0.0695733
0.00452414
0.0687551
0.0047494
0.0673969
0.0061925
0.0657245
0.00622482
0.0639849
0.00582783
0.062267
0.00540913
0.0606089
0.00497351
0.0590409
0.00452724
0.0575877
0.00405814
0.0562547
0.00361979
0.0549742
0.00352948
0.0536362
0.00389409
0.0522996
0.00390869
0.0509946
0.00384572
0.0497212
0.00376815
0.0484735
0.00369713
0.0473443
0.0033475
0.046284
0.00316054
0.045263
0.00308389
0.0442812
0.00299101
0.0433989
0.00262937
0.0426112
0.00231164
0.0418821
0.00213498
0.041191
0.00202472
0.0405215
0.00197255
0.0398589
0.00196855
0.0391902
0.00200621
0.038502
0.00208618
0.0377748
0.00222756
0.0369973
0.00240755
0.0361511
0.00265089
0.0352195
0.0029516
0.0341353
0.00349516
0.0328981
0.00393267
0.031355
0.00545538
0.0108897
0.0281773
0.0568494
-0.0560469
-0.0440831
0.0680649
-0.0322999
0.0760682
-0.0133821
0.0807431
-0.00282115
0.0829546
0.00211927
0.0835802
0.00389848
0.0832513
0.00507833
0.0822192
0.00722467
0.0807155
0.00772851
0.0790244
0.00751896
0.0772984
0.00713512
0.0756005
0.00667136
0.073964
0.00616376
0.0724135
0.00560864
0.0709567
0.00507656
0.0695394
0.00494686
0.0680531
0.00538041
0.066539
0.00542269
0.0650426
0.00534219
0.0635716
0.00523914
0.0621236
0.0051451
0.0608092
0.00466196
0.0595744
0.00439531
0.0583888
0.00426945
0.0572497
0.00413014
0.0562157
0.00366343
0.0552865
0.00324077
0.0544247
0.00299684
0.053606
0.0028434
0.0528122
0.00276628
0.0520269
0.00275386
0.0512352
0.00279793
0.0504221
0.00289929
0.0495656
0.00308409
0.0486534
0.00331969
0.0476667
0.00363759
0.0465847
0.00403361
0.045344
0.00473588
0.0439201
0.0053566
0.0422487
0.00712679
0.0140023
0.0391361
0.0622662
-0.0698072
-0.048506
0.0750757
-0.0451095
0.0855516
-0.023858
0.0929415
-0.010211
0.0973847
-0.00232397
0.0995536
0.00172958
0.100168
0.00446365
0.0996955
0.00769744
0.0984568
0.0089672
0.0968035
0.00917226
0.0949946
0.00894405
0.0931711
0.0084949
0.0913995
0.00793529
0.0897168
0.00729137
0.0881359
0.00665743
0.0866142
0.0064686
0.0850424
0.00695218
0.0834264
0.00703871
0.0818106
0.00695806
0.0802085
0.00684117
0.0786202
0.00673345
0.0771689
0.00611327
0.0758009
0.00576327
0.0744881
0.00558225
0.0732253
0.00539293
0.0720666
0.00482218
0.0710176
0.00428975
0.0700424
0.00397209
0.0691141
0.00377162
0.0682132
0.00366727
0.0673211
0.00364588
0.0664214
0.00369762
0.0654975
0.00382323
0.0645249
0.00405674
0.0634909
0.00435366
0.0623771
0.00475139
0.06116
0.0052507
0.0597823
0.00611352
0.0582085
0.00693041
0.0564651
0.00887018
0.0169965
0.053471
0.0685995
-0.0849974
-0.0534093
0.0829768
-0.0594867
0.0955725
-0.0364537
0.105588
-0.0202267
0.112671
-0.0094067
0.117048
-0.00264742
0.119291
0.0022206
0.119933
0.00705526
0.119366
0.00953477
0.118007
0.0105312
0.116225
0.0107261
0.114277
0.0104424
0.112311
0.00990141
0.11041
0.00919273
0.108614
0.00845309
0.106908
0.00817453
0.105201
0.00865942
0.103469
0.00877032
0.101746
0.00868131
0.100045
0.00854261
0.0983607
0.00841729
0.0968204
0.0076536
0.0953689
0.00721474
0.09398
0.00697117
0.0926452
0.00672775
0.0914097
0.00605768
0.0902842
0.00541524
0.0892368
0.0050195
0.0882389
0.00476945
0.0872696
0.00463663
0.0863092
0.00460623
0.0853397
0.0046671
0.0843431
0.00481981
0.083293
0.00510686
0.082177
0.00546967
0.0809782
0.00595024
0.0796728
0.00655603
0.0782128
0.00757358
0.0765655
0.00857771
0.0748342
0.0106015
0.0197727
0.0720579
0.0760143
-0.102142
-0.0588694
0.0921883
-0.0756608
0.106761
-0.0510262
0.119158
-0.0326234
0.128902
-0.0191508
0.135856
-0.0096023
0.140299
-0.00222203
0.142682
0.0046719
0.143373
0.00884376
0.142804
0.0111008
0.141407
0.012123
0.139551
0.0122981
0.137492
0.0119608
0.135391
0.0112935
0.133344
0.0104999
0.131382
0.0101364
0.129456
0.010586
0.127534
0.0106924
0.12564
0.010575
0.123794
0.0103886
0.121993
0.0102184
0.120362
0.00928471
0.11884
0.00873686
0.117399
0.00841212
0.116025
0.00810114
0.114752
0.00733146
0.11359
0.00657724
0.112513
0.0060966
0.111491
0.00579135
0.110501
0.00562616
0.109523
0.00558392
0.108538
0.00565235
0.107526
0.00583174
0.10646
0.00617321
0.105328
0.00660159
0.104117
0.00716164
0.102805
0.0078672
0.101358
0.00902092
0.0997577
0.010178
0.0981592
0.0122
0.0221996
0.0957324
0.0846888
-0.121849
-0.064982
0.103085
-0.0940574
0.119755
-0.0676957
0.134388
-0.0472569
0.146628
-0.0313902
0.156216
-0.0191902
0.163184
-0.00919014
0.167795
6.05721e-05
0.170326
0.00631247
0.17114
0.0102869
0.170662
0.0126012
0.169317
0.0136433
0.167457
0.0138208
0.16534
0.0134108
0.163139
0.0127009
0.160952
0.0123229
0.158791
0.012747
0.156641
0.0128425
0.154524
0.0126922
0.15247
0.0124427
0.150488
0.0122004
0.148714
0.0110588
0.147083
0.0103681
0.145565
0.00992977
0.144142
0.00952414
0.14283
0.00864317
0.141639
0.00776846
0.140546
0.00718934
0.139522
0.00681544
0.138542
0.00660647
0.137584
0.00654222
0.136627
0.00660905
0.135652
0.00680662
0.134631
0.00719438
0.133555
0.00767763
0.132415
0.00830171
0.131197
0.00908444
0.12988
0.0103382
0.128469
0.0115891
0.127141
0.0135282
0.0241343
0.125206
0.0948307
-0.144822
-0.071858
0.116027
-0.115254
0.135155
-0.0868232
0.152108
-0.0642099
0.166732
-0.0460143
0.178843
-0.0313009
0.188388
-0.018736
0.195483
-0.007034
0.200267
0.0015287
0.203
0.00755372
0.204022
0.0115792
0.203734
0.0139311
0.202531
0.0150235
0.200749
0.0151932
0.198645
0.0148053
0.196398
0.0145696
0.194098
0.0150465
0.191773
0.0151678
0.189456
0.0150095
0.187188
0.0147099
0.184998
0.0143908
0.18304
0.0130169
0.181253
0.0121548
0.179613
0.01157
0.1781
0.0110371
0.176719
0.0100242
0.175474
0.00901365
0.174346
0.00831685
0.173308
0.00785372
0.172333
0.00758166
0.171398
0.00747689
0.170483
0.00752369
0.169569
0.00772063
0.168629
0.008135
0.167657
0.00864912
0.166652
0.00930675
0.165611
0.0101261
0.164522
0.0114267
0.163417
0.0126939
0.162465
0.0144801
0.0254697
0.16113
0.106697
-0.171889
-0.0796302
0.131411
-0.139968
0.153554
-0.108966
0.173157
-0.0838126
0.190254
-0.0631108
0.20482
-0.0458671
0.216862
-0.0307779
0.226466
-0.0166387
0.23368
-0.0056849
0.238667
0.00256654
0.241665
0.00858119
0.242982
0.0126142
0.242979
0.0150261
0.242015
0.0161574
0.240405
0.0164153
0.238406
0.016569
0.236191
0.0172611
0.233851
0.0175081
0.231451
0.0174095
0.229053
0.0171075
0.226707
0.0167373
0.224587
0.0151372
0.222646
0.0140956
0.220869
0.0133465
0.219243
0.0126631
0.217767
0.0115005
0.216441
0.0103392
0.215253
0.00950522
0.214177
0.00892939
0.213189
0.00857016
0.212265
0.00840077
0.211386
0.00840254
0.210535
0.00857223
0.209685
0.00898444
0.20884
0.00949465
0.208003
0.0101437
0.207182
0.0109468
0.206376
0.0122331
0.205635
0.0134345
0.205099
0.0150163
0.0261817
0.204387
0.120607
-0.204035
-0.0884608
0.149708
-0.169068
0.175597
-0.134855
0.198397
-0.106613
0.218291
-0.0830048
0.235425
-0.0630003
0.249935
-0.0452884
0.261978
-0.0286822
0.271618
-0.0153243
0.278968
-0.00478322
0.284196
0.00335236
0.287517
0.00929328
0.289206
0.0133374
0.289579
0.0157845
0.288956
0.017038
0.287636
0.0178891
0.285861
0.0190362
0.283786
0.0195828
0.281527
0.0196689
0.279178
0.0194568
0.276816
0.019099
0.274631
0.017322
0.272605
0.0161213
0.27074
0.0152123
0.26903
0.0143731
0.267475
0.0130549
0.266078
0.0117366
0.26483
0.0107532
0.263714
0.0100454
0.262709
0.00957527
0.261795
0.00931463
0.260955
0.00924209
0.260175
0.00935231
0.259432
0.00972739
0.258734
0.0101925
0.258093
0.0107855
0.257523
0.0115164
0.257025
0.0127306
0.256665
0.0137954
0.256539
0.0151419
0.0263168
0.256404
0.136958
-0.242444
-0.0985497
0.171492
-0.203602
0.202031
-0.165394
0.22877
-0.133352
0.252009
-0.106244
0.272046
-0.083037
0.289169
-0.062411
0.303656
-0.043169
0.315662
-0.0273307
0.325342
-0.0144635
0.33285
-0.00415517
0.33835
0.0037933
0.342043
0.0096443
0.344171
0.0136561
0.34501
0.0161992
0.34485
0.0180492
0.343962
0.0199246
0.342545
0.0209997
0.340761
0.0214525
0.338745
0.0214734
0.336607
0.0212362
0.33454
0.0193899
0.332571
0.0180904
0.330727
0.0170556
0.329022
0.016078
0.327462
0.0146148
0.326054
0.0131451
0.324797
0.0120105
0.323682
0.0111602
0.322696
0.0105609
0.321826
0.0101848
0.32106
0.0100085
0.320387
0.0100248
0.31979
0.0103242
0.319283
0.0106995
0.318882
0.0111871
0.318605
0.0117927
0.318451
0.0128855
0.318485
0.0137613
0.31877
0.0148569
0.0259275
0.319159
0.156242
-0.288541
-0.110145
0.197474
-0.244834
0.233763
-0.201683
0.265373
-0.164963
0.292709
-0.13358
0.316206
-0.106533
0.336298
-0.0825035
0.353406
-0.0602765
0.367816
-0.0417411
0.379783
-0.0264309
0.38952
-0.0138916
0.397198
-0.00388532
0.402997
0.00384604
0.407105
0.00954764
0.40974
0.0135644
0.41115
0.0166389
0.411593
0.0194816
0.411277
0.021316
0.410387
0.0223427
0.409085
0.0227749
0.407516
0.0228058
0.405841
0.0210648
0.404154
0.0197768
0.40252
0.01869
0.400976
0.0176223
0.399543
0.0160475
0.39824
0.0144482
0.397078
0.0131728
0.396058
0.0121793
0.395179
0.0114403
0.394434
0.0109299
0.393818
0.0106239
0.393329
0.0105141
0.392952
0.0107011
0.392707
0.0109443
0.392613
0.0112815
0.39269
0.0117161
0.392926
0.0126488
0.393387
0.0133005
0.394106
0.014138
0.0250282
0.395005
0.179067
-0.344053
-0.123554
0.228527
-0.294295
0.271903
-0.245059
0.309529
-0.202589
0.341918
-0.165969
0.369638
-0.134253
0.393271
-0.106137
0.413382
-0.0803873
0.430407
-0.0587663
0.444731
-0.0407552
0.456674
-0.0258339
0.466478
-0.0136894
0.474349
-0.00402553
0.480478
0.00341889
0.485052
0.00899034
0.48828
0.013411
0.490387
0.0173748
0.491562
0.0201413
0.491985
0.0219198
0.491825
0.022935
0.491239
0.0233914
0.490319
0.0219853
0.489229
0.0208665
0.488074
0.0198444
0.486926
0.0187711
0.485826
0.0171473
0.484811
0.0154627
0.48391
0.0140742
0.483138
0.0129509
0.482506
0.0120726
0.482018
0.0114176
0.481679
0.0109628
0.481492
0.010701
0.481449
0.0107447
0.481572
0.0108214
0.48188
0.0109731
0.482393
0.0112037
0.483091
0.0119505
0.484032
0.0123594
0.485232
0.0129385
0.0235926
0.486667
0.206185
-0.411082
-0.139156
0.265733
-0.353843
0.317818
-0.297143
0.362856
-0.247627
0.401481
-0.204594
0.434403
-0.167175
0.462357
-0.134091
0.486063
-0.104093
0.506113
-0.0788166
0.523039
-0.057681
0.537291
-0.0400862
0.549225
-0.0256232
0.559126
-0.0139261
0.567228
-0.00468331
0.573738
0.00248003
0.578859
0.00829005
0.582795
0.0134388
0.585714
0.0172228
0.587776
0.0198573
0.589139
0.0215722
0.589955
0.0225758
0.590187
0.0217526
0.590068
0.0209857
0.589737
0.0201752
0.589296
0.019212
0.588813
0.0176303
0.588347
0.0159292
0.587945
0.0144765
0.587641
0.0132546
0.58746
0.0122532
0.587421
0.0114573
0.587536
0.0108471
0.587819
0.0104189
0.588263
0.0102998
0.588897
0.010188
0.589737
0.0101325
0.590801
0.0101403
0.592063
0.0106888
0.593572
0.0108496
0.595334
0.0111772
0.0215523
0.597374
0.238498
-0.492182
-0.157398
0.310401
-0.425746
0.373174
-0.359916
0.427331
-0.301785
0.473644
-0.250906
0.512985
-0.206517
0.546264
-0.16737
0.574367
-0.132196
0.598059
-0.102508
0.618028
-0.0776501
0.634872
-0.0569306
0.649081
-0.0398317
0.661052
-0.0258969
0.671106
-0.0147376
0.679508
-0.00592219
0.686494
0.00130379
0.692284
0.00764917
0.697043
0.0124642
0.700922
0.0159779
0.704065
0.0184289
0.706611
0.0200298
0.708353
0.0200108
0.709572
0.0197672
0.710429
0.019318
0.71105
0.0185912
0.711523
0.0171575
0.711926
0.0155257
0.712328
0.0140747
0.71278
0.0128028
0.713321
0.0117116
0.713984
0.0107949
0.714792
0.0100391
0.715764
0.00944656
0.716903
0.00916101
0.718236
0.00885514
0.719781
0.00858715
0.721552
0.00836939
0.723521
0.00871996
0.725731
0.0086396
0.728178
0.00872935
0.0187915
0.730939
0.251473
-0.581217
-0.162438
0.3303
-0.504573
0.399028
-0.428644
0.458231
-0.360988
0.508757
-0.301432
0.551573
-0.249333
0.587681
-0.203478
0.618064
-0.16258
0.643586
-0.12803
0.665028
-0.0990926
0.68308
-0.074982
0.698317
-0.0550686
0.711219
-0.038799
0.722178
-0.0256973
0.731515
-0.0152593
0.739503
-0.00668334
0.74638
0.000771659
0.752328
0.00651646
0.757496
0.0108097
0.762018
0.013907
0.766016
0.0160312
0.769133
0.0168938
0.771657
0.0172435
0.773742
0.0172327
0.775514
0.01682
0.777062
0.0156087
0.778473
0.0141151
0.77982
0.0127277
0.781163
0.0114598
0.78255
0.0103251
0.784018
0.0093268
0.785598
0.00845912
0.787313
0.00773128
0.789171
0.0073033
0.791197
0.00682885
0.793409
0.00637536
0.795817
0.00596102
0.798397
0.00614005
0.801183
0.00585341
0.80417
0.00574234
0.0154941
0.807468
0.261516
-0.677046
-0.165687
0.346273
-0.58933
0.420108
-0.502478
0.483641
-0.424521
0.537788
-0.355579
0.583592
-0.295136
0.622135
-0.242021
0.654476
-0.194921
0.681557
-0.155111
0.704235
-0.121771
0.723268
-0.0940151
0.739302
-0.071102
0.75288
-0.0523774
0.764456
-0.0372728
0.774401
-0.0252045
0.78303
-0.0153121
0.79061
-0.00680885
0.797345
-0.000218302
0.8034
0.00475449
0.808914
0.0083931
0.814007
0.0109385
0.818211
0.0126897
0.82181
0.013644
0.824946
0.0140974
0.827733
0.0140328
0.830259
0.0130824
0.832606
0.011768
0.834849
0.0104851
0.837048
0.00926079
0.839253
0.00811998
0.841504
0.00707551
0.843834
0.0061292
0.846268
0.00529774
0.848815
0.00475551
0.851501
0.00414307
0.85434
0.00353618
0.857343
0.00295863
0.860488
0.0029947
0.863804
0.00253763
0.867285
0.00226134
0.0117153
0.871064
0.273578
-0.780293
-0.170331
0.364835
-0.680587
0.444283
-0.581927
0.512599
-0.492837
0.570768
-0.413748
0.619915
-0.344283
0.661205
-0.283311
0.69578
-0.229495
0.72466
-0.183991
0.748777
-0.145888
0.768955
-0.114193
0.785905
-0.088052
0.800232
-0.0667041
0.812443
-0.0494839
0.822961
-0.0357228
0.832144
-0.0244947
0.840294
-0.0149591
0.847644
-0.00756757
0.854381
-0.00198264
0.860661
0.00211296
0.866614
0.00498548
0.871693
0.00761032
0.87618
0.00915689
0.880204
0.0100743
0.88387
0.0103667
0.88726
0.00969238
0.890451
0.00857674
0.893515
0.00742137
0.89651
0.00626535
0.899486
0.00514413
0.902482
0.00407948
0.90553
0.0030808
0.908656
0.00217198
0.911872
0.00153968
0.915199
0.000816067
0.918651
8.40915e-05
0.922237
-0.000627414
0.925942
-0.000710129
0.929787
-0.00130729
0.933768
-0.00171952
0.0074502
0.938033
0.287525
-0.891621
-0.176197
0.385877
-0.778939
0.471469
-0.667519
0.545034
-0.566402
0.607633
-0.476347
0.660479
-0.397129
0.704827
-0.32766
0.741905
-0.266573
0.772818
-0.214905
0.798573
-0.171643
0.820064
-0.135684
0.838065
-0.106053
0.85324
-0.0818792
0.866151
-0.0623944
0.877268
-0.0468397
0.886991
-0.0342175
0.895659
-0.0236276
0.903537
-0.0154459
0.91084
-0.00928562
0.917745
-0.00479142
0.924397
-0.00166647
0.930193
0.00181372
0.935418
0.00393256
0.940189
0.0053024
0.944609
0.00594729
0.948751
0.00554977
0.952689
0.00463877
0.95649
0.00362084
0.960209
0.00254619
0.963893
0.00145991
0.967581
0.000392246
0.971302
-0.000640181
0.97508
-0.00160673
0.97893
-0.00231054
0.982871
-0.00312395
0.986913
-0.00395808
0.991065
-0.00477969
0.995317
-0.00496209
0.999684
-0.00567475
1.00416
-0.00619943
0.00269837
1.00892
0.303304
-1.01174
-0.183183
0.409391
-0.885026
0.50169
-0.759818
0.580995
-0.645707
0.648451
-0.543803
0.705366
-0.454043
0.753091
-0.375385
0.792948
-0.306429
0.826131
-0.248087
0.853726
-0.199238
0.8767
-0.158659
0.895894
-0.125247
0.912031
-0.0980158
0.925724
-0.0760882
0.937494
-0.0586097
0.947782
-0.0445053
0.956964
-0.0328096
0.965338
-0.0238192
0.973146
-0.0170941
0.98059
-0.0122355
0.987836
-0.00891189
0.994237
-0.00458793
1.00008
-0.0019143
1.00549
-0.000105584
1.01056
0.000882035
1.01535
0.000755441
1.01994
4.71373e-05
1.0244
-0.00083164
1.02876
-0.00182004
1.03309
-0.00286379
1.0374
-0.00392464
1.04174
-0.00497903
1.04612
-0.00599002
1.05057
-0.00675247
1.05508
-0.00764008
1.05968
-0.00855908
1.06438
-0.00947249
1.06915
-0.00974043
1.07403
-0.0105494
1.079
-0.0111683
-0.00253226
1.08423
0.320921
-1.14143
-0.191236
0.43543
-0.999534
0.535041
-0.859429
0.620613
-0.731279
0.693381
-0.616572
0.754756
-0.515418
0.806194
-0.426823
0.849116
-0.349351
0.884812
-0.283784
0.914455
-0.228881
0.939088
-0.183292
0.959621
-0.14578
0.976839
-0.115233
0.991411
-0.0906597
1.0039
-0.0711025
1.0148
-0.0554037
1.02452
-0.0425271
1.03339
-0.032686
1.04168
-0.0253832
1.04961
-0.0201726
1.05738
-0.0166845
1.06432
-0.0115181
1.0707
-0.00830025
1.07666
-0.00606301
1.08228
-0.00474175
1.08764
-0.00460484
1.09281
-0.00511548
1.09783
-0.00585748
1.10277
-0.00675948
1.10766
-0.00775819
1.11255
-0.00880759
1.11745
-0.00987736
1.12238
-0.0109247
1.12737
-0.0117378
1.13242
-0.0126891
1.13754
-0.0136808
1.14274
-0.0146728
1.14801
-0.0150166
1.15337
-0.0159077
1.15881
-0.0166072
-0.00822531
1.1645
0.340422
-1.28152
-0.200334
0.464097
-1.12321
0.571673
-0.967005
0.66408
-0.823686
0.742651
-0.695143
0.808905
-0.581672
0.864412
-0.48233
0.910704
-0.395643
0.949172
-0.322252
0.981081
-0.26079
1.00756
-0.209767
1.02958
-0.167805
1.04801
-0.133658
1.06356
-0.10621
1.07685
-0.0843968
1.08842
-0.0669695
1.09871
-0.0528164
1.10808
-0.0420626
1.11685
-0.0341495
1.12526
-0.0285804
1.13352
-0.0249433
1.14092
-0.0189244
1.14779
-0.0151642
1.15423
-0.0125029
1.16034
-0.0108536
1.16619
-0.0104589
1.17185
-0.0107768
1.17738
-0.0113856
1.18282
-0.0122031
1.18822
-0.0131571
1.19361
-0.0141938
1.19901
-0.0152761
1.20444
-0.0163556
1.20992
-0.0172152
1.21545
-0.0182238
1.22105
-0.0192804
1.22672
-0.020342
1.23246
-0.0207557
1.23827
-0.0217188
1.24415
-0.0224893
-0.0143569
1.25028
0.361882
-1.43292
-0.21048
0.495534
-1.25686
0.611785
-1.08326
0.711643
-0.923544
0.796546
-0.780046
0.868132
-0.653258
0.928095
-0.542293
0.978083
-0.445632
1.0196
-0.363767
1.054
-0.295195
1.08251
-0.238278
1.10619
-0.191484
1.12596
-0.153422
1.14259
-0.122848
1.15677
-0.098577
1.16907
-0.0792667
1.17998
-0.0637222
1.18989
-0.0519753
1.19914
-0.0434019
1.20801
-0.0374504
1.21673
-0.0336634
1.22458
-0.0267705
1.23187
-0.0224603
1.23874
-0.0193723
1.24529
-0.0173955
1.25157
-0.0167454
1.25767
-0.0168735
1.26364
-0.017352
1.26952
-0.0180875
1.27536
-0.0189984
1.28119
-0.0200228
1.28703
-0.0211172
1.2929
-0.0222272
1.29882
-0.0231319
1.30479
-0.0241944
1.31082
-0.0253113
1.31692
-0.0264369
1.32308
-0.0269175
1.32931
-0.027946
1.3356
-0.028781
-0.0208966
1.34214
0.385405
-1.59663
-0.221693
0.529917
-1.40137
0.655618
-1.20896
0.763598
-1.03152
0.855409
-0.871857
0.93282
-0.730669
0.997656
-0.607128
1.05169
-0.499669
1.09655
-0.408626
1.1337
-0.332346
1.16446
-0.269031
1.18996
-0.216986
1.2112
-0.174667
1.22904
-0.140685
1.2442
-0.113733
1.25729
-0.092364
1.26887
-0.0752941
1.27935
-0.0624562
1.2891
-0.0531555
1.29843
-0.0467817
1.3076
-0.0428285
1.31586
-0.035029
1.32355
-0.0301518
1.3308
-0.0266271
1.33772
-0.0243176
1.34439
-0.0234101
1.35086
-0.0233484
1.35721
-0.0236976
1.36347
-0.0243526
1.3697
-0.0252218
1.37591
-0.0262353
1.38213
-0.0273422
1.38839
-0.0284829
1.39469
-0.029433
1.40105
-0.0305484
1.40746
-0.0317233
1.41393
-0.0329101
1.42047
-0.0334566
1.42707
-0.0345466
1.43373
-0.0354423
-0.0278071
1.44064
0.411116
-1.77374
-0.234005
0.567455
-1.55771
0.703451
-1.34495
0.820285
-1.14836
0.919635
-0.971207
1.00341
-0.814442
1.07357
-0.677292
1.13204
-0.558139
1.18057
-0.457151
1.22073
-0.372512
1.25395
-0.30225
1.28146
-0.244497
1.30434
-0.197541
1.32349
-0.159843
1.33972
-0.12996
1.35369
-0.106334
1.36598
-0.0875848
1.37707
-0.0735397
1.38734
-0.0634281
1.39713
-0.0565764
1.40673
-0.0524255
1.41538
-0.0436766
1.42343
-0.0382063
1.43103
-0.0342272
1.43829
-0.0315738
1.44528
-0.030402
1.45208
-0.0301468
1.45875
-0.0303653
1.46533
-0.0309396
1.47188
-0.0317679
1.47841
-0.0327713
1.48496
-0.0338919
1.49155
-0.0350641
1.49817
-0.036061
1.50486
-0.0372295
1.51159
-0.0384622
1.51839
-0.0397089
1.52526
-0.0403224
1.53218
-0.0414718
1.53917
-0.0424264
-0.0350445
1.54641
0.439164
-1.96545
-0.24746
0.608387
-1.72694
0.755604
-1.49217
0.882096
-1.27485
0.989674
-1.07879
1.0804
-0.905165
1.15639
-0.753281
1.21971
-0.621463
1.27225
-0.509693
1.31572
-0.415984
1.35165
-0.338177
1.38137
-0.274214
1.40603
-0.222206
1.42664
-0.18045
1.44404
-0.147359
1.45896
-0.121253
1.47202
-0.100649
1.48374
-0.0852614
1.49455
-0.0742376
1.50481
-0.066836
1.51483
-0.0624405
1.52384
-0.0526896
1.53223
-0.0465909
1.54013
-0.0421325
1.54768
-0.0391178
1.55494
-0.0376698
1.56201
-0.0372134
1.56894
-0.0372966
1.57579
-0.0377879
1.5826
-0.0385745
1.58939
-0.0395681
1.5962
-0.0407032
1.60305
-0.0419081
1.60994
-0.0429535
1.61689
-0.0441765
1.62389
-0.0454675
1.63096
-0.0467745
1.63809
-0.047457
1.64529
-0.0486655
1.65254
-0.0496787
-0.0425569
1.66005
0.469718
-2.17305
-0.262114
0.652986
-1.9102
0.81244
-1.65162
0.94947
-1.41188
1.06603
-1.19535
1.16435
-1.00348
1.24671
-0.835643
1.31535
-0.690099
1.37229
-0.566637
1.41939
-0.463083
1.45829
-0.377076
1.49043
-0.306353
1.51706
-0.248837
1.53925
-0.202646
1.55793
-0.166037
1.57388
-0.137201
1.58777
-0.114544
1.60017
-0.0976568
1.61153
-0.0856003
1.62226
-0.0775592
1.63267
-0.0728559
1.64202
-0.0620408
1.6507
-0.0552696
1.65887
-0.0502991
1.66665
-0.0468993
1.67414
-0.0451579
1.68141
-0.0444883
1.68854
-0.0444284
1.69559
-0.0448321
1.70259
-0.0455744
1.70958
-0.0465573
1.71658
-0.0477069
1.72362
-0.0489454
1.73071
-0.0500414
1.73785
-0.0513204
1.74505
-0.0526712
1.75232
-0.0540396
1.75966
-0.054794
1.76705
-0.0560624
1.77451
-0.0571353
-0.0502825
1.78223
0.502972
-2.39799
-0.27803
0.701558
-2.10879
0.874366
-1.82443
1.0229
-1.56041
1.14928
-1.32172
1.2559
-1.1101
1.34523
-0.924978
1.41969
-0.764552
1.48145
-0.628406
1.53253
-0.51416
1.57469
-0.419234
1.60949
-0.34115
1.63827
-0.277622
1.6622
-0.226578
1.68228
-0.186109
1.69934
-0.154264
1.71412
-0.129327
1.72722
-0.11076
1.73915
-0.0975296
1.75034
-0.0887402
1.76113
-0.0836479
1.77078
-0.0716968
1.77971
-0.0641995
1.78809
-0.0586765
1.79605
-0.0548614
1.8037
-0.0528039
1.81111
-0.0519046
1.81838
-0.0516901
1.82554
-0.0519984
1.83266
-0.0526918
1.83976
-0.0536616
1.84688
-0.0548249
1.85403
-0.0560972
1.86124
-0.0572454
1.8685
-0.0585822
1.87582
-0.0599945
1.88321
-0.061426
1.89067
-0.0622558
1.8982
-0.0635858
1.90578
-0.0647202
-0.0581479
1.91365
0.539142
-2.64185
-0.295281
0.754448
-2.3241
0.941836
-2.01182
1.10294
-1.72152
1.24005
-1.45883
1.35575
-1.2258
1.45272
-1.02195
1.53355
-0.845381
1.60061
-0.695466
1.65605
-0.5696
1.70178
-0.46497
1.7395
-0.378863
1.77064
-0.308768
1.79647
-0.25241
1.81806
-0.207698
1.83633
-0.172529
1.85206
-0.145057
1.8659
-0.124605
1.87841
-0.110034
1.89003
-0.100366
1.90117
-0.0947835
1.91109
-0.0816148
1.92021
-0.0733283
1.92874
-0.0672041
1.93682
-0.0629364
1.94455
-0.0605343
1.95203
-0.059384
1.95934
-0.0589996
1.96654
-0.0592019
1.97369
-0.0598394
1.98082
-0.0607916
1.98796
-0.0619665
1.99513
-0.0632721
2.00236
-0.0644737
2.00965
-0.0658698
2.017
-0.0673454
2.02442
-0.068842
2.03191
-0.0697511
2.03947
-0.071145
2.04709
-0.0723435
-0.0660654
2.05501
0.578468
-2.90637
-0.313947
0.812037
-2.55767
1.01536
-2.21514
1.1902
-1.89636
1.33905
-1.60768
1.4647
-1.35145
1.57003
-1.12728
1.65785
-0.9332
1.73071
-0.768329
1.79094
-0.629829
1.84061
-0.514633
1.88152
-0.419774
1.91525
-0.3425
1.94316
-0.280316
1.96639
-0.230935
1.98596
-0.19209
2.00269
-0.161795
2.01731
-0.13922
2.03039
-0.123118
2.04244
-0.112415
2.05388
-0.106218
2.064
-0.0917402
2.07326
-0.0825909
2.08187
-0.0758081
2.08997
-0.0710435
2.0977
-0.068262
2.10515
-0.066834
2.11241
-0.0662601
2.11955
-0.0663424
2.12663
-0.0669141
2.13368
-0.0678425
2.14074
-0.0690252
2.14783
-0.0703624
2.15497
-0.0716178
2.16218
-0.0730741
2.16945
-0.0746148
2.17678
-0.0761786
2.1842
-0.0771712
2.19169
-0.0786316
2.19924
-0.0798973
-0.0739292
2.20711
0.621217
-3.19347
-0.334117
0.874752
-2.8112
1.0955
-2.43589
1.28538
-2.08625
1.44708
-1.76938
1.58363
-1.488
1.69813
-1.24178
1.79362
-1.02869
1.87286
-0.847565
1.93835
-0.695318
1.99232
-0.568609
2.03674
-0.464195
2.07331
-0.379066
2.10348
-0.310488
2.12851
-0.255963
2.14947
-0.213047
2.16727
-0.179602
2.18269
-0.154633
2.19634
-0.136775
2.20878
-0.124855
2.22046
-0.117894
2.23072
-0.102004
2.24004
-0.0919068
2.24863
-0.0843984
2.25667
-0.0790843
2.26429
-0.0758819
2.2716
-0.0741441
2.2787
-0.0733563
2.28565
-0.0733006
2.29253
-0.0737937
2.29938
-0.0746896
2.30623
-0.0758745
2.31311
-0.0772402
2.32004
-0.0785488
2.32703
-0.0800659
2.33409
-0.081673
2.34122
-0.083306
2.34843
-0.0843863
2.35572
-0.0859162
2.36307
-0.0872528
-0.0816124
2.37075
0.667688
-3.50527
-0.355889
0.943068
-3.08658
1.18289
-2.67571
1.38924
-2.2926
1.56503
-1.94517
1.71353
-1.6365
1.8381
-1.36636
1.94201
-1.1326
2.02825
-0.933801
2.09952
-0.766588
2.15823
-0.627323
2.20651
-0.51247
2.24618
-0.418737
2.27882
-0.343135
2.3058
-0.282936
2.32825
-0.235505
2.34719
-0.198538
2.36342
-0.170866
2.37764
-0.150994
2.39043
-0.13764
2.40227
-0.129734
2.41258
-0.112318
2.42185
-0.101176
2.43032
-0.0928647
2.43817
-0.0869397
2.44556
-0.0832673
2.45259
-0.0811812
2.45939
-0.0801501
2.46602
-0.0799342
2.47256
-0.0803324
2.47905
-0.0811842
2.48554
-0.0823635
2.49206
-0.083753
2.49862
-0.085113
2.50525
-0.0866906
2.51194
-0.0883648
2.5187
-0.0900688
2.52555
-0.091241
2.53248
-0.0928436
2.53948
-0.0942551
-0.0889624
2.54683
0.71821
-3.84412
-0.379367
1.01751
-3.38588
1.27823
-2.93643
1.50264
-2.51701
1.69388
-2.13641
1.8555
-1.79811
1.99113
-1.50198
2.10429
-1.24577
2.19823
-1.02774
2.27586
-0.844216
2.33978
-0.691249
2.39229
-0.56498
2.43537
-0.461815
2.47072
-0.378486
2.49981
-0.312019
2.52387
-0.259573
2.544
-0.218664
2.56107
-0.187935
2.57582
-0.165749
2.58889
-0.150708
2.6008
-0.141642
2.61106
-0.122574
2.62016
-0.110276
2.62836
-0.101072
2.63589
-0.0944653
2.64289
-0.0902655
2.64949
-0.0877855
2.65582
-0.0864757
2.66196
-0.0860726
2.66798
-0.0863558
2.67394
-0.0871486
2.67989
-0.0883121
2.68586
-0.0897188
2.69187
-0.0911269
2.69795
-0.0927635
2.70409
-0.094505
2.7103
-0.0962814
2.71661
-0.0975497
2.72299
-0.0992283
2.72945
-0.100719
-0.0957958
2.73629
0.773147
-4.2126
-0.404668
1.09868
-3.71141
1.38231
-3.22006
1.62653
-2.76123
1.83474
-2.34462
2.01077
-1.97414
2.15856
-1.64977
2.28192
-1.36912
2.38433
-1.13015
2.46896
-0.928846
2.53862
-0.760911
2.59578
-0.622145
2.6426
-0.508628
2.6809
-0.416791
2.71228
-0.343392
2.73807
-0.285369
2.75945
-0.240042
2.77736
-0.205849
2.79262
-0.181004
2.80589
-0.163978
2.81774
-0.153496
2.8278
-0.132636
2.83658
-0.119055
2.84437
-0.108858
2.85139
-0.101486
2.85782
-0.0966922
2.8638
-0.0937648
2.86946
-0.0921344
2.87489
-0.0915115
2.88019
-0.0916549
2.88542
-0.0923706
2.89061
-0.093505
2.89581
-0.0949199
2.90105
-0.0963712
2.90635
-0.098064
2.91172
-0.0998721
2.91716
-0.101722
2.9227
-0.10309
2.92832
-0.104848
2.93402
-0.106422
-0.101893
2.94012
0.832904
-4.61359
-0.431912
1.18721
-4.06572
1.49601
-3.52886
1.76199
-3.02721
1.98885
-2.57148
2.18074
-2.16603
2.34191
-1.81094
2.47648
-1.5037
2.58823
-1.2419
2.68058
-1.02119
2.75656
-0.836892
2.81885
-0.684435
2.86976
-0.559544
2.9113
-0.458325
2.94516
-0.377251
2.9728
-0.313015
2.99549
-0.262729
3.01425
-0.224609
3.02995
-0.196703
3.04332
-0.177347
3.05497
-0.165145
3.06467
-0.142338
3.07295