/*--------------------------------*- C++ -*----------------------------------*\
| =========                 |                                                 |
| \\      /  F ield         | OpenFOAM: The Open Source CFD Toolbox           |
|  \\    /   O peration     | Version:  5.x                                   |
|   \\  /    A nd           | Web:      www.OpenFOAM.org                      |
|    \\/     M anipulation  |                                                 |
\*---------------------------------------------------------------------------*/
FoamFile
{
    version     2.0;
    format      ascii;
    class       volVectorField;
    location    "200";
    object      U;
}
// * * * * * * * * * * * * * * * * * * * * * * * * * * * * * * * * * * * * * //

dimensions      [0 1 -1 0 0 0 0];

internalField   nonuniform List<vector> 
11040
(
(5.07053 33.1538 -8.14125e-19)
(14.9083 37.0013 0)
(22.3787 31.872 -1.88266e-17)
(26.0423 23.9221 -2.11428e-17)
(27.5986 17.3987 -1.17481e-17)
(28.6015 13.2109 -3.30745e-17)
(29.4411 10.5825 -1.19573e-17)
(29.6329 8.404 1.10874e-17)
(29.2487 6.51046 8.83201e-18)
(28.5868 5.01766 0)
(27.8637 3.88498 6.54168e-18)
(27.1489 3.00306 0)
(26.4519 2.29189 0)
(25.7887 1.70808 -3.50643e-18)
(25.1839 1.22233 -1.03361e-18)
(24.6004 0.779514 -4.62899e-19)
(23.898 0.306278 1.83301e-19)
(23.0866 -0.151882 1.94045e-21)
(22.2434 -0.545293 -3.51895e-20)
(21.411 -0.868467 1.69614e-18)
(20.5856 -1.13281 3.85379e-19)
(19.7957 -1.338 -7.70136e-18)
(19.0473 -1.49013 9.21846e-18)
(18.312 -1.60392 3.7422e-19)
(17.5765 -1.68151 2.59378e-17)
(16.9018 -1.70678 -1.51883e-17)
(16.324 -1.69267 0)
(15.8111 -1.66462 0)
(15.3246 -1.63278 -2.05584e-17)
(14.8486 -1.59838 7.14369e-19)
(14.3783 -1.56142 -7.31482e-19)
(13.9084 -1.52188 -5.10369e-17)
(13.4323 -1.47944 -4.21226e-19)
(12.9418 -1.43348 0)
(12.4274 -1.38294 6.32689e-17)
(11.8861 -1.32727 -5.158e-19)
(11.2894 -1.26305 2.70684e-19)
(10.6697 -1.19299 2.57272e-20)
(9.82548 -1.1014 4.20001e-17)
(9.33339 -0.974018 -1.78078e-19)
(6.46885 -1.28334 -1.07186e-16)
(11.8166 27.6711 2.04343e-18)
(23.1032 28.7168 -1.46331e-18)
(31.7281 26.3036 6.15997e-18)
(36.0122 22.7774 3.34125e-18)
(37.3678 19.1516 0)
(37.3068 15.8628 1.27471e-17)
(36.7698 13.0257 0)
(36.0839 10.4428 -5.79173e-18)
(35.1212 8.26232 -1.03598e-17)
(33.9894 6.54268 0)
(32.8445 5.18141 -8.739e-18)
(31.7562 4.0772 9.21905e-19)
(30.7382 3.16903 -3.31404e-18)
(29.7917 2.41555 6.18144e-19)
(28.9285 1.77793 1.60707e-18)
(28.1589 1.194 0)
(27.4033 0.604027 6.2373e-20)
(26.5603 0.0797727 1.23706e-19)
(25.6556 -0.357883 -2.01233e-20)
(24.73 -0.724249 -1.01121e-18)
(23.7973 -1.031 -2.26432e-19)
(22.8989 -1.2743 2.36052e-19)
(22.0602 -1.45923 -5.09864e-18)
(21.2592 -1.60065 -3.8176e-19)
(20.4724 -1.69631 -7.77401e-18)
(19.7153 -1.72568 -5.54437e-19)
(19.0336 -1.71836 6.03666e-19)
(18.4259 -1.70426 0)
(17.864 -1.68621 1.21851e-17)
(17.3304 -1.66285 -1.35899e-17)
(16.8161 -1.63463 1.45968e-17)
(16.3127 -1.60199 1.56668e-17)
(15.8122 -1.56475 -4.95003e-19)
(15.3063 -1.52243 0)
(14.7857 -1.47408 -1.82562e-17)
(14.2479 -1.41894 0)
(13.6671 -1.35408 -2.05922e-17)
(13.0796 -1.27995 2.18071e-17)
(12.2803 -1.18311 -2.33368e-17)
(11.8616 -1.06296 -2.46109e-17)
(9.68399 -1.16405 0)
(13.1953 24.5404 -1.07674e-18)
(20.5138 27.2364 8.79409e-19)
(27.5145 26.6371 6.00546e-18)
(32.6704 24.072 8.07824e-18)
(35.7622 20.8001 1.01318e-18)
(37.2896 17.5568 6.7645e-18)
(37.8805 14.6211 -7.89903e-18)
(37.8831 11.9055 -1.90802e-18)
(37.368 9.54275 5.80707e-18)
(36.4958 7.59872 3.27004e-18)
(35.465 6.02369 1.60695e-18)
(34.4008 4.74271 1.35842e-18)
(33.3568 3.69348 2.02977e-18)
(32.3579 2.82613 3.47498e-19)
(31.4254 2.09469 -2.7346e-18)
(30.5638 1.43764 5.65681e-19)
(29.7085 0.796738 -2.80687e-19)
(28.8033 0.225048 3.04051e-20)
(27.8601 -0.260537 -3.16094e-20)
(26.9041 -0.6717 9.84051e-19)
(25.9413 -1.0174 -2.35523e-19)
(25.0103 -1.29412 -3.16807e-18)
(24.1365 -1.50542 0)
(23.2993 -1.66651 -4.81775e-18)
(22.4832 -1.77724 0)
(21.7076 -1.82258 1.29938e-17)
(21.0028 -1.82878 -7.76315e-18)
(20.3633 -1.8223 8.5153e-18)
(19.7667 -1.80729 -9.30732e-18)
(19.1984 -1.78428 1.06373e-17)
(18.6504 -1.75477 -1.07645e-17)
(18.1154 -1.71953 3.45735e-19)
(17.5857 -1.67852 -1.1863e-17)
(17.0528 -1.63109 0)
(16.5075 -1.57636 0)
(15.9475 -1.51293 0)
(15.3491 -1.43871 0)
(14.743 -1.3483 0)
(13.9545 -1.24347 -1.28753e-19)
(13.4495 -1.07305 1.71799e-17)
(11.6562 -1.11231 -1.78133e-17)
(14.9965 21.7772 0)
(20.343 24.3508 -5.5192e-20)
(26.0043 24.6786 -1.89495e-19)
(30.7413 23.103 1.65694e-18)
(34.0663 20.5328 1.09897e-18)
(36.1061 17.7412 -1.27768e-17)
(37.2431 15.1017 6.31821e-18)
(37.7715 12.6139 8.27225e-18)
(37.7701 10.3502 -1.43272e-18)
(37.3408 8.39628 -1.42195e-18)
(36.648 6.76108 -2.34248e-18)
(35.8234 5.39975 -5.2171e-20)
(34.9406 4.26188 2.3945e-18)
(34.0415 3.30564 -1.20943e-18)
(33.1603 2.49229 1.32248e-18)
(32.3143 1.76879 -1.01507e-18)
(31.4599 1.07687 0)
(30.5547 0.451588 7.98956e-22)
(29.6086 -0.0849988 7.04769e-20)
(28.6467 -0.540339 -5.89819e-19)
(27.6767 -0.924267 2.63351e-19)
(26.737 -1.23281 2.55554e-18)
(25.8528 -1.46957 -3.54648e-19)
(25.0046 -1.65074 3.75479e-18)
(24.1794 -1.77888 -4.37749e-18)
(23.3948 -1.84209 -5.03116e-18)
(22.6759 -1.86162 5.6394e-18)
(22.0185 -1.86309 -6.19779e-18)
(21.4027 -1.85332 6.73219e-18)
(20.8148 -1.83368 0)
(20.2475 -1.80581 -7.75335e-18)
(19.6942 -1.77063 7.73245e-18)
(19.1478 -1.72818 9.3148e-18)
(18.6 -1.67779 9.26309e-18)
(18.0424 -1.61851 -9.7833e-18)
(17.4726 -1.54832 0)
(16.8693 -1.46579 0)
(16.2577 -1.36103 -1.81806e-19)
(15.4898 -1.24432 1.22736e-17)
(14.9436 -1.03183 1.27817e-17)
(13.3846 -0.989924 -6.49405e-20)
(16.6665 19.3835 0)
(20.5007 21.6077 -3.05588e-18)
(24.8679 22.5392 1.99809e-19)
(29.0387 21.9493 -1.00708e-19)
(32.3889 20.2214 -2.30552e-19)
(34.7276 17.9427 5.15503e-18)
(36.2091 15.5528 8.74859e-20)
(37.0644 13.207 -1.19094e-17)
(37.4039 11.0138 -3.54075e-18)
(37.3114 9.06473 1.94736e-18)
(36.9162 7.39458 -1.4648e-18)
(36.344 5.98152 -1.72124e-19)
(35.6733 4.78551 -2.57406e-18)
(34.9486 3.76892 5.15801e-20)
(34.202 2.89614 3.00533e-19)
(33.4544 2.12191 -2.39571e-19)
(32.6813 1.39201 1.86275e-19)
(31.8486 0.725502 0)
(30.9609 0.146141 -5.7764e-20)
(30.0421 -0.349266 2.5021e-19)
(29.1044 -0.769884 0)
(28.189 -1.11045 0)
(27.3226 -1.37379 6.93052e-19)
(26.4888 -1.57654 1.53113e-18)
(25.6777 -1.72364 4.86555e-18)
(24.903 -1.80653 3.57977e-18)
(24.1863 -1.84217 0)
(23.5259 -1.85476 6.45391e-19)
(22.9052 -1.85303 4.75879e-18)
(22.3117 -1.83901 0)
(21.7382 -1.81452 1.18866e-20)
(21.1786 -1.78076 -6.63167e-18)
(20.6266 -1.73794 7.01035e-18)
(20.0744 -1.68533 -7.87541e-18)
(19.5144 -1.62193 7.78266e-18)
(18.9443 -1.54517 -1.81386e-20)
(18.346 -1.45398 2.55858e-19)
(17.7396 -1.3352 -8.7415e-18)
(17.0016 -1.20281 -9.51358e-18)
(16.4478 -0.958176 -3.82111e-20)
(15.0899 -0.83288 9.94254e-18)
(18.1336 17.316 -4.01605e-19)
(20.9392 19.1094 2.97036e-18)
(24.1948 20.2553 -1.96264e-18)
(27.6207 20.3812 -9.70607e-19)
(30.7505 19.4715 -1.20038e-18)
(33.2387 17.8261 3.15065e-18)
(35.0086 15.8236 -1.06145e-18)
(36.1584 13.7047 4.26165e-18)
(36.7834 11.6303 4.03477e-18)
(36.9623 9.71125 -2.40977e-18)
(36.8037 8.01375 2.55691e-18)
(36.427 6.55035 1.0425e-18)
(35.9218 5.29908 9.51541e-19)
(35.3418 4.22782 -7.06031e-19)
(34.7216 3.30335 6.46511e-19)
(34.0836 2.48672 -2.71384e-19)
(33.4162 1.72915 1.07757e-19)
(32.6902 1.03374 -1.55259e-20)
(31.9012 0.420294 1.10398e-19)
(31.0673 -0.110022 -4.24513e-19)
(30.2019 -0.564049 1.00301e-18)
(29.3466 -0.934951 9.69671e-20)
(28.5293 -1.22441 -4.84546e-19)
(27.738 -1.44919 -5.75923e-18)
(26.9661 -1.61609 1.4708e-18)
(26.2245 -1.72007 -8.39032e-18)
(25.5308 -1.77428 8.97236e-19)
(24.886 -1.80046 4.10817e-18)
(24.2776 -1.8087 -4.46215e-18)
(23.6945 -1.80194 6.14025e-19)
(23.13 -1.7823 5.14359e-18)
(22.5787 -1.75124 -6.62112e-19)
(22.0347 -1.70911 -1.32831e-20)
(21.4912 -1.65519 0)
(20.9413 -1.58835 -5.9243e-18)
(20.3832 -1.50565 -4.08374e-19)
(19.8018 -1.40599 -4.4347e-19)
(19.2136 -1.27444 7.73461e-18)
(18.5182 -1.1252 0)
(17.9795 -0.858792 -1.58483e-17)
(16.8159 -0.673339 0)
(19.3939 15.5304 0)
(21.5054 16.9297 -3.95589e-18)
(23.9189 18.025 2.84732e-18)
(26.5985 18.5184 -2.98681e-19)
(29.2983 18.2369 7.111e-19)
(31.7075 17.2431 7.55657e-21)
(33.6313 15.7572 -9.19525e-19)
(35.032 13.9965 0)
(35.9366 12.1431 -1.70759e-18)
(36.3919 10.3282 1.90977e-18)
(36.4774 8.64761 -3.24421e-18)
(36.2962 7.15197 -1.63387e-18)
(35.9424 5.84839 6.95583e-19)
(35.4825 4.71997 0)
(34.9606 3.74115 -6.46393e-19)
(34.4054 2.8797 6.5993e-19)
(33.8194 2.09335 6.55457e-20)
(33.1839 1.37306 1.09752e-19)
(32.4903 0.7313 1.66126e-19)
(31.7489 0.171435 -1.02817e-19)
(30.9703 -0.311608 1.3272e-20)
(30.1932 -0.7097 0)
(29.4446 -1.02332 0)
(28.7157 -1.26914 2.12509e-18)
(28.0029 -1.45536 0)
(27.3139 -1.58038 5.04594e-21)
(26.6627 -1.65431 0)
(26.0519 -1.69573 -3.41322e-18)
(25.4732 -1.71543 3.6817e-18)
(24.9171 -1.71738 0)
(24.3777 -1.70394 0)
(23.8502 -1.67677 0)
(23.3295 -1.63639 -4.71335e-18)
(22.8097 -1.58209 -5.56439e-18)
(22.2848 -1.51267 5.82803e-18)
(21.7537 -1.42494 0)
(21.2043 -1.31756 -5.65961e-18)
(20.6501 -1.17539 3.74479e-19)
(20.014 -1.0106 5.74999e-18)
(19.5099 -0.734081 6.39545e-18)
(18.5402 -0.512834 0)
(20.4729 13.9782 -6.58488e-19)
(22.1088 15.0538 5.64191e-18)
(23.9197 15.9884 -4.27473e-18)
(25.9594 16.597 0)
(28.1467 16.7016 -2.09621e-18)
(30.2845 16.2382 -2.11204e-19)
(32.176 15.2794 0)
(33.7093 13.9599 0)
(34.8384 12.4306 2.25662e-19)
(35.5588 10.8195 9.86042e-19)
(35.9064 9.23595 1.23962e-18)
(35.9518 7.76033 0)
(35.7773 6.43246 0)
(35.4542 5.25918 -6.32031e-19)
(35.0354 4.22906 0)
(34.5583 3.31996 0)
(34.0384 2.49905 0)
(33.471 1.75181 -4.17708e-20)
(32.8505 1.08269 -5.08041e-19)
(32.1834 0.494748 5.13351e-19)
(31.4794 -0.015361 -4.55755e-19)
(30.7744 -0.438282 0)
(30.0933 -0.774049 0)
(29.4292 -1.03961 0)
(28.7797 -1.24415 0)
(28.1503 -1.38916 2.32622e-18)
(27.5507 -1.4827 -2.58197e-18)
(26.9844 -1.54003 2.82204e-18)
(26.4461 -1.57197 -6.10478e-18)
(25.9283 -1.58337 3.26249e-18)
(25.4258 -1.5769 -3.46856e-18)
(24.9343 -1.55436 0)
(24.4497 -1.51644 0)
(23.9667 -1.46252 1.738e-20)
(23.4806 -1.39132 0)
(22.9907 -1.29969 -4.41589e-18)
(22.4885 -1.18593 9.22662e-18)
(21.9845 -1.03615 3.03447e-19)
(21.4239 -0.859609 -3.47661e-19)
(20.972 -0.584615 0)
(20.1946 -0.347834 -4.96087e-18)
(21.3935 12.6221 0)
(22.6913 13.4444 -1.39197e-19)
(24.0793 14.1973 1.55956e-18)
(25.6256 14.7787 2.6907e-18)
(27.3315 15.0608 -9.4184e-19)
(29.1059 14.9499 1.79266e-18)
(30.8092 14.4288 0)
(32.3225 13.5493 0)
(33.5621 12.4009 0)
(34.4796 11.0794 0)
(35.0659 9.68397 7.31803e-19)
(35.3491 8.30503 -1.56302e-18)
(35.3834 7.00685 5.42142e-19)
(35.2296 5.82204 -4.48375e-19)
(34.9421 4.75914 0)
(34.5639 3.8105 -2.11037e-19)
(34.1211 2.95542 1.65408e-19)
(33.622 2.17987 -2.08004e-20)
(33.0671 1.48257 0)
(32.4629 0.865709 0)
(31.8191 0.327989 0)
(31.1715 -0.119804 0)
(30.5452 -0.477563 0)
(29.9351 -0.76268 0)
(29.3403 -0.985144 -1.71772e-18)
(28.7641 -1.14911 0)
(28.2129 -1.26175 3.25421e-18)
(27.6901 -1.33535 -3.46776e-18)
(27.1924 -1.38002 5.04319e-18)
(26.7143 -1.40128 -2.70029e-18)
(26.2512 -1.40219 1.47591e-18)
(25.7996 -1.38472 -6.03264e-18)
(25.3558 -1.34973 1.55408e-18)
(24.9155 -1.29681 4.17434e-18)
(24.4753 -1.22473 -8.50577e-19)
(24.0348 -1.1306 3.61908e-18)
(23.589 -1.01256 -3.7606e-18)
(23.1459 -0.859131 -4.90735e-19)
(22.6703 -0.676749 4.48064e-19)
(22.2816 -0.413764 0)
(21.686 -0.177022 4.03325e-18)
(22.176 11.4329 2.71704e-19)
(23.225 12.0601 0)
(24.3132 12.6485 6.98101e-18)
(25.4981 13.1441 -9.35265e-18)
(26.8089 13.4689 5.52151e-18)
(28.2189 13.5461 -3.70448e-18)
(29.6525 13.3282 1.06387e-18)
(31.0205 12.813 -1.64398e-18)
(32.2419 12.0338 4.24496e-19)
(33.2495 11.041 5.83882e-19)
(34.0028 9.90351 1.38068e-19)
(34.4918 8.69993 3.57295e-19)
(34.735 7.50123 2.41504e-19)
(34.7702 6.35796 -3.68979e-19)
(34.6416 5.29848 2.95766e-19)
(34.3905 4.33242 9.36245e-20)
(34.0489 3.45381 0)
(33.6346 2.65496 4.57048e-20)
(33.1553 1.93307 -8.88414e-19)
(32.619 1.28926 9.03873e-19)
(32.0359 0.72386 1.56478e-18)
(31.4416 0.250139 -1.61279e-18)
(30.8627 -0.130728 0)
(30.2974 -0.436445 0)
(29.7467 -0.677662 2.91017e-18)
(29.2137 -0.860551 -1.52258e-18)
(28.7026 -0.992126 1.83096e-18)
(28.2161 -1.08241 1.29225e-19)
(27.7526 -1.14055 -8.29048e-18)
(27.3084 -1.17244 2.15401e-18)
(26.8798 -1.18152 2.35262e-18)
(26.4636 -1.16995 4.94842e-18)
(26.0572 -1.13882 -1.32313e-18)
(25.6572 -1.08799 -1.37124e-18)
(25.261 -1.01648 0)
(24.8692 -0.922001 -2.91622e-18)
(24.4793 -0.802877 0)
(24.0974 -0.650709 0)
(23.7039 -0.469778 -3.64294e-18)
(23.378 -0.227332 -2.64784e-18)
(22.9377 -0.00165596 -1.9928e-19)
(22.8382 10.3878 -1.21566e-19)
(23.6983 10.8653 0)
(24.5687 11.3172 -3.18662e-18)
(25.4922 11.7152 -5.61738e-18)
(26.5013 12.0149 5.73622e-18)
(27.5983 12.1657 1.86915e-18)
(28.7515 12.1228 0)
(29.9093 11.8636 -1.5545e-18)
(31.0122 11.3852 0)
(32 10.7019 6.26613e-19)
(32.8223 9.84735 6.18919e-19)
(33.4461 8.87365 -2.59783e-19)
(33.86 7.84006 4.96452e-19)
(34.0742 6.80018 6.68699e-20)
(34.1134 5.7945 1.47135e-19)
(34.009 4.84778 -4.55186e-19)
(33.7912 3.96923 -5.5618e-19)
(33.4821 3.16125 1.09322e-18)
(33.0949 2.42433 0)
(32.6402 1.76036 1.17828e-18)
(32.129 1.17144 -1.12801e-18)
(31.5956 0.673734 1.97811e-19)
(31.0678 0.270056 -4.62965e-19)
(30.5475 -0.0570579 0)
(30.0384 -0.318266 0)
(29.5437 -0.520749 0)
(29.0675 -0.671613 3.00617e-18)
(28.6122 -0.779449 -2.99971e-18)
(28.1775 -0.852342 1.74758e-18)
(27.7614 -0.896176 1.80668e-18)
(27.3611 -0.914746 0)
(26.9744 -0.910491 -1.14729e-20)
(26.5992 -0.884824 -4.25828e-18)
(26.2331 -0.838057 3.25236e-18)
(25.8747 -0.769633 3.40263e-18)
(25.5249 -0.678104 2.3834e-18)
(25.1836 -0.562355 1.24065e-18)
(24.8548 -0.417168 -2.48803e-18)
(24.5296 -0.245486 9.52596e-19)
(24.257 -0.029555 2.97884e-18)
(23.9323 0.17672 0)
(23.3956 9.4686 -1.05032e-19)
(24.1086 9.83133 -3.12423e-18)
(24.8159 10.1743 -2.84398e-19)
(25.5486 10.4829 2.09368e-18)
(26.3341 10.7323 -1.22797e-17)
(27.1839 10.8926 3.97277e-18)
(28.0895 10.9318 -7.94619e-18)
(29.0267 10.8264 1.33239e-18)
(29.961 10.5597 3.20242e-18)
(30.8492 10.1244 -5.47616e-18)
(31.6485 9.52896 -5.25992e-19)
(32.3204 8.79768 0)
(32.8375 7.96847 -8.17849e-19)
(33.1884 7.08426 -6.08668e-19)
(33.377 6.18546 -1.0033e-18)
(33.4187 5.30423 1.72677e-18)
(33.3349 4.46119 -4.67955e-19)
(33.1454 3.66909 -1.56115e-18)
(32.8651 2.93488 3.17343e-18)
(32.5063 2.2638 1.42294e-19)
(32.0806 1.66056 -4.57904e-18)
(31.62 1.14469 2.36565e-18)
(31.1527 0.721549 -3.13163e-18)
(30.6847 0.374791 3.36709e-18)
(30.2216 0.0942127 0)
(29.7679 -0.127672 -1.72215e-18)
(29.3278 -0.297883 2.30619e-18)
(28.9039 -0.423917 1.29134e-18)
(28.4974 -0.512811 -2.07889e-18)
(28.1076 -0.570186 1.54241e-18)
(27.7333 -0.600064 -3.04109e-18)
(27.3729 -0.605209 -3.30858e-18)
(27.0253 -0.587393 3.39423e-18)
(26.6888 -0.547447 9.23993e-19)
(26.363 -0.485423 -5.54842e-18)
(26.0491 -0.400862 2.82816e-18)
(25.748 -0.293526 -9.95463e-19)
(25.4627 -0.160965 1.01111e-18)
(25.1897 -0.00557534 -2.58082e-18)
(24.9583 0.180586 2.54725e-19)
(24.71 0.360956 2.55717e-19)
(23.8618 8.66042 0)
(24.4577 8.93503 -2.57578e-18)
(25.0396 9.19273 5.44401e-18)
(25.63 9.42638 4.95965e-18)
(26.25 9.62202 -4.20359e-18)
(26.9123 9.76291 1.26532e-17)
(27.618 9.82881 7.25184e-18)
(28.3583 9.80227 0)
(29.1167 9.66579 6.72345e-18)
(29.8676 9.40474 -5.50409e-18)
(30.5813 9.01361 -1.24601e-18)
(31.2261 8.49816 0)
(31.7722 7.87567 5.93282e-19)
(32.198 7.17254 -2.21816e-18)
(32.4925 6.41965 1.95004e-18)
(32.6558 5.64715 0)
(32.6969 4.87978 -2.78619e-19)
(32.6282 4.13677 -3.11073e-18)
(32.4614 3.43137 2.69181e-18)
(32.2078 2.77347 -1.44995e-19)
(31.8784 2.17136 2.26215e-18)
(31.5015 1.64822 -4.95454e-18)
(31.1049 1.21284 -5.83284e-20)
(30.6977 0.85119 2.9127e-18)
(30.2879 0.554315 2.13061e-19)
(29.8813 0.315174 -4.53677e-19)
(29.4823 0.127151 -4.09221e-18)
(29.0945 -0.0164096 -2.45467e-19)
(28.7198 -0.12166 4.41671e-18)
(28.3591 -0.193778 6.0101e-19)
(28.0121 -0.236762 0)
(27.6787 -0.253569 2.03765e-18)
(27.3583 -0.24632 -2.71024e-18)
(27.0502 -0.216408 2.17581e-18)
(26.7546 -0.164585 -1.45955e-18)
(26.4729 -0.0913659 -7.69753e-19)
(26.2066 0.00257379 7.79468e-19)
(25.9573 0.117651 1.60738e-18)
(25.7242 0.25154 8.28216e-19)
(25.5242 0.406913 0)
(25.3249 0.557805 0)
(24.2491 7.95075 0)
(24.75 8.15757 9.37485e-18)
(25.233 8.34916 -9.31774e-18)
(25.7146 8.52262 0)
(26.2106 8.67004 0)
(26.7322 8.78223 -1.80968e-17)
(27.2835 8.84719 1.11479e-17)
(27.8628 8.85366 1.23795e-17)
(28.4637 8.78807 -1.24445e-17)
(29.0734 8.6364 0)
(29.6743 8.38844 1.04332e-17)
(30.2447 8.04058 -9.38232e-18)
(30.7605 7.59687 8.71665e-18)
(31.1998 7.0691 -7.55001e-18)
(31.5455 6.47562 6.89657e-19)
(31.7879 5.83846 4.11615e-18)
(31.9254 5.17952 -2.3134e-18)
(31.9614 4.51875 0)
(31.9015 3.87233 3.94386e-18)
(31.753 3.2536 -3.38145e-18)
(31.5241 2.67411 -4.21781e-18)
(31.2378 2.16022 -2.93266e-19)
(30.9194 1.72458 -4.15005e-19)
(30.5807 1.3567 5.13768e-18)
(30.2313 1.04976 -3.14769e-18)
(29.8781 0.797905 3.00093e-18)
(29.5264 0.59542 -3.41257e-18)
(29.1803 0.436579 -1.8393e-19)
(28.8429 0.316078 2.88451e-19)
(28.516 0.229274 3.35694e-18)
(28.2005 0.172329 4.20108e-18)
(27.897 0.142179 -5.86487e-18)
(27.606 0.13642 -7.39025e-20)
(27.3273 0.153171 2.55846e-18)
(27.0614 0.191088 -2.95817e-19)
(26.8102 0.248914 -2.47355e-18)
(26.5749 0.325251 1.84265e-18)
(26.3563 0.419221 -1.61753e-18)
(26.1546 0.528446 1.28779e-18)
(25.9793 0.653229 -3.26162e-19)
(25.8126 0.773986 0)
(24.5686 7.32895 -4.34251e-18)
(24.9911 7.48352 4.28109e-18)
(25.3946 7.62413 0)
(25.791 7.7504 0)
(26.1925 7.85777 0)
(26.6078 7.9413 -6.89823e-18)
(27.0416 7.99404 1.90655e-17)
(27.495 8.00923 -1.25201e-17)
(27.9663 7.97757 2.96642e-18)
(28.45 7.88832 2.80745e-18)
(28.9369 7.73192 1.23339e-17)
(29.4141 7.50154 -6.98841e-19)
(29.8652 7.19491 -3.93925e-18)
(30.2727 6.81482 -8.37756e-18)
(30.6204 6.36938 -5.33676e-18)
(30.8954 5.87143 5.60807e-18)
(31.09 5.33642 -7.70284e-19)
(31.2009 4.78053 7.03143e-18)
(31.2273 4.21877 -1.33178e-17)
(31.1715 3.66506 -2.76611e-19)
(31.0375 3.13229 7.57872e-18)
(30.8413 2.64814 2.70939e-19)
(30.604 2.22847 -4.81899e-18)
(30.3381 1.86704 4.54469e-18)
(30.0541 1.55981 5.13061e-18)
(29.7596 1.30278 -5.16598e-18)
(29.4605 1.0916 2.22468e-20)
(29.1616 0.921734 -4.67181e-20)
(28.8668 0.788814 0)
(28.5787 0.688849 -1.01877e-19)
(28.2991 0.618331 1.058e-19)
(28.0293 0.574267 0)
(27.7704 0.554116 1.12961e-19)
(27.5229 0.555664 -2.34069e-19)
(27.2876 0.577138 2.40703e-19)
(27.066 0.6168 0)
(26.8594 0.672815 -2.14336e-18)
(26.6681 0.743608 1.63151e-18)
(26.4923 0.826891 0)
(26.3373 0.922127 7.89161e-19)
(26.194 1.01403 -5.13799e-19)
(24.8295 6.78556 1.91997e-18)
(25.1866 6.89976 1.43684e-17)
(25.5251 7.00132 -1.41786e-17)
(25.8536 7.09124 1.97596e-17)
(26.1815 7.16679 -1.29375e-17)
(26.5156 7.2254 5.9706e-18)
(26.86 7.2631 2.34778e-19)
(27.2168 7.27594 -2.74775e-17)
(27.586 7.25791 1.92541e-17)
(27.9657 7.20156 1.74177e-17)
(28.3517 7.0996 -3.28512e-18)
(28.7369 6.94563 -2.13792e-17)
(29.1113 6.73527 2.01678e-18)
(29.4629 6.46714 -2.21673e-18)
(29.7793 6.14342 -1.79326e-18)
(30.0488 5.76991 9.34469e-18)
(30.2621 5.35555 -8.42338e-18)
(30.4128 4.91114 7.18832e-18)
(30.4963 4.44799 1.60256e-19)
(30.5106 3.97783 -7.2398e-18)
(30.4555 3.51251 8.5625e-18)
(30.3399 3.07829 -7.8419e-18)
(30.1793 2.69244 -2.83377e-19)
(29.9855 2.35268 -8.8586e-18)
(29.7682 2.0578 8.89565e-18)
(29.535 1.80588 -4.69287e-18)
(29.2919 1.59427 4.69179e-18)
(29.0443 1.41984 3.86235e-20)
(28.7963 1.27932 5.29865e-18)
(28.5512 1.16951 -5.22368e-18)
(28.3113 1.08745 5.57741e-18)
(28.0786 1.0304 -5.66635e-18)
(27.8546 0.995896 -9.24849e-20)
(27.64 0.98163 3.06433e-18)
(27.4359 0.985656 -6.09301e-18)
(27.2438 1.00607 6.30964e-18)
(27.0647 1.0409 -4.69765e-18)
(26.8985 1.08831 3.35708e-18)
(26.7455 1.14623 -1.63543e-18)
(26.6086 1.2139 0)
(26.4835 1.27933 4.08374e-19)
(25.0401 6.31124 -1.67285e-18)
(25.342 6.39425 -1.24829e-17)
(25.6263 6.46623 1.22847e-17)
(25.8996 6.5287 5.88556e-18)
(26.169 6.57993 -3.32422e-17)
(26.4399 6.61862 3.26633e-17)
(26.7158 6.64255 -1.03378e-17)
(26.9984 6.64937 -1.48244e-17)
(27.2888 6.63529 2.46346e-17)
(27.5864 6.59536 -1.83562e-17)
(27.8894 6.52448 2.30232e-17)
(28.1941 6.41775 1.91413e-17)
(28.4949 6.27106 -1.71316e-17)
(28.7843 6.08171 1.8941e-18)
(29.0537 5.84912 1.74997e-17)
(29.2942 5.57525 -1.62601e-17)
(29.498 5.26444 8.44803e-19)
(29.6582 4.92282 1.42429e-17)
(29.769 4.55762 -1.59633e-17)
(29.8263 4.17721 9.29002e-19)
(29.8273 3.79083 -1.76789e-18)
(29.775 3.4209 -7.32369e-18)
(29.6794 3.08392 8.23429e-18)
(29.55 2.78035 7.18413e-19)
(29.3951 2.51111 -2.36243e-19)
(29.2214 2.27611 0)
(29.0343 2.07426 -2.65033e-19)
(28.8391 1.90383 -2.72232e-19)
(28.6399 1.76271 2.79356e-19)
(28.4401 1.64861 0)
(28.2424 1.55921 0)
(28.049 1.49227 -4.81746e-18)
(27.8616 1.44561 4.80887e-18)
(27.6812 1.41709 3.1036e-19)
(27.509 1.40484 -7.90679e-20)
(27.3463 1.40707 0)
(27.1939 1.42195 0)
(27.0519 1.44764 1.64738e-18)
(26.9202 1.4824 -2.97703e-18)
(26.8007 1.52552 1.32399e-18)
(26.6917 1.56773 -2.50838e-19)
(25.2015 5.91651 1.47403e-17)
(25.4584 5.97664 -1.15708e-17)
(25.6992 6.02744 -1.10724e-17)
(25.9289 6.07036 2.12519e-17)
(26.1531 6.10418 -1.07055e-17)
(26.3759 6.12838 -1.00128e-17)
(26.6004 6.14168 1.47996e-17)
(26.8281 6.14267 0)
(27.0601 6.12885 4.91905e-18)
(27.2963 6.09693 0)
(27.5362 6.04341 -3.94725e-17)
(27.7777 5.96478 3.52417e-17)
(28.0176 5.85781 0)
(28.2512 5.71994 -4.25204e-18)
(28.4731 5.54972 1.40151e-17)
(28.677 5.34725 -3.36054e-17)
(28.8568 5.11448 1.55454e-17)
(29.0071 4.85458 1.951e-18)
(29.1223 4.57177 -1.04775e-18)
(29.1981 4.27147 1.03649e-18)
(29.2307 3.96017 1.55529e-17)
(29.2196 3.65566 -2.84763e-17)
(29.1707 3.37223 1.42823e-17)
(29.0909 3.11164 -4.52902e-19)
(28.9866 2.87595 4.89658e-19)
(28.8631 2.66613 4.97647e-19)
(28.725 2.48221 2.43041e-19)
(28.577 2.32353 2.49142e-19)
(28.4227 2.18891 -8.63152e-18)
(28.2654 2.0769 8.35857e-18)
(28.1077 1.98583 8.69333e-18)
(27.9518 1.91399 -1.30876e-17)
(27.7993 1.85963 8.89236e-18)
(27.6516 1.82093 -4.75228e-18)
(27.5096 1.79629 5.72095e-19)
(27.3746 1.78418 0)
(27.2473 1.78306 -2.3469e-18)
(27.1277 1.79126 2.03991e-18)
(27.016 1.80739 -2.92822e-19)
(26.9132 1.83086 -5.96576e-19)
(26.8193 1.85468 5.09741e-19)
(25.3206 5.60169 -2.68605e-18)
(25.5423 5.64559 0)
(25.7493 5.68148 -9.96946e-18)
(25.9455 5.71063 -9.52752e-18)
(26.1354 5.73215 1.96722e-17)
(26.3224 5.74595 0)
(26.509 5.7513 2.79087e-17)
(26.6966 5.74731 -2.80284e-17)
(26.8861 5.73228 -8.95761e-18)
(27.0777 5.70397 -4.44182e-17)
(27.2712 5.65997 3.54913e-17)
(27.4656 5.5978 4.38287e-18)
(27.6588 5.51507 0)
(27.848 5.40976 4.11615e-17)
(28.0294 5.28042 -3.29814e-17)
(28.1988 5.12657 1.78591e-17)
(28.352 4.94887 -2.00278e-17)
(28.4846 4.74896 2.90929e-17)
(28.5923 4.52918 -3.08804e-17)
(28.6711 4.29291 -1.81456e-18)
(28.7175 4.04449 0)
(28.7294 3.79753 1.4121e-17)
(28.7099 3.56371 -2.99814e-17)
(28.6639 3.34513 1.49777e-17)
(28.596 3.14416 -1.43096e-18)
(28.5104 2.96224 -8.20169e-18)
(28.4107 2.8 1.65324e-17)
(28.3007 2.65741 -6.81071e-18)
(28.1835 2.53397 -1.01051e-18)
(28.0619 2.42882 0)
(27.9384 2.34086 -5.16392e-19)
(27.8148 2.26884 8.34562e-18)
(27.6928 2.21145 -4.09359e-18)
(27.5736 2.16722 -3.66646e-18)
(27.4581 2.13488 -5.31939e-19)
(27.3474 2.1132 5.38192e-19)
(27.2422 2.10094 5.41165e-19)
(27.1425 2.09669 2.72755e-18)
(27.0487 2.09935 -2.72089e-18)
(26.9612 2.10846 1.63664e-18)
(26.8809 2.11884 -2.67373e-19)
(25.4105 5.34669 0)
(25.604 5.37875 0)
(25.784 5.40392 1.8469e-17)
(25.9538 5.42324 -3.65841e-17)
(26.1169 5.43604 1.8406e-17)
(26.2764 5.44247 -1.80542e-17)
(26.4342 5.44213 0)
(26.5915 5.43444 -4.37042e-17)
(26.7492 5.41822 3.51891e-17)
(26.9076 5.39189 4.27357e-17)
(27.0666 5.35373 -3.43919e-17)
(27.2255 5.302 4.39309e-18)
(27.3831 5.23497 0)
(27.5375 5.1511 1.59669e-19)
(27.6862 5.04922 -4.116e-18)
(27.8263 4.92874 -4.07076e-18)
(27.9548 4.78985 -1.94854e-19)
(28.0684 4.63333 0)
(28.164 4.46052 -1.02426e-19)
(28.2382 4.27352 0)
(28.288 4.07517 -1.70839e-17)
(28.311 3.87577 1.50307e-17)
(28.3087 3.68455 0)
(28.2846 3.50348 1.50229e-17)
(28.2419 3.33479 -1.4017e-17)
(28.1836 3.17999 1.51531e-17)
(28.1127 3.03992 -1.69782e-17)
(28.0319 2.91491 -1.90784e-18)
(27.9439 2.80485 9.49126e-19)
(27.8512 2.70928 9.80546e-19)
(27.7556 2.6275 4.83941e-19)
(27.6588 2.55866 6.93293e-18)
(27.5623 2.5018 -8.88249e-18)
(27.4671 2.45578 2.51251e-18)
(27.3742 2.41964 -2.98182e-18)
(27.2843 2.39243 -5.02199e-19)
(27.1982 2.3732 1.5251e-18)
(27.1159 2.36077 -2.52242e-18)
(27.0378 2.35432 -2.03382e-18)
(26.9643 2.35347 1.00969e-18)
(26.8962 2.35447 -7.48488e-19)
(25.4794 5.13602 -8.64957e-18)
(25.6498 5.1593 8.66249e-18)
(25.8078 5.17663 -1.70839e-17)
(25.9562 5.18883 6.7195e-20)
(26.0979 5.19536 3.37791e-17)
(26.2355 5.19654 1.67474e-17)
(26.3707 5.19216 3.32885e-17)
(26.5045 5.18183 -4.53448e-19)
(26.6377 5.16471 1.6278e-17)
(26.7706 5.13966 -4.159e-17)
(26.9031 5.10545 8.27329e-18)
(27.0349 5.06083 -3.21218e-17)
(27.165 5.00456 6.44892e-17)
(27.2923 4.93551 -4.41473e-17)
(27.4149 4.85279 3.87698e-18)
(27.5309 4.7559 7.80563e-18)
(27.638 4.64484 3.07531e-17)
(27.7341 4.52004 -3.09403e-17)
(27.8166 4.38225 -3.2523e-17)
(27.883 4.23281 3.43051e-17)
(27.931 4.07362 -9.37991e-18)
(27.9582 3.91245 1.68259e-17)
(27.9653 3.75651 1.8827e-18)
(27.9547 3.60742 0)
(27.9287 3.46711 1.47709e-17)
(27.8897 3.33693 -1.46799e-17)
(27.8397 3.21775 9.07619e-19)
(27.7809 3.11003 1.57889e-17)
(27.7154 3.01385 -1.47945e-17)
(27.6452 2.92901 -9.21784e-19)
(27.5718 2.85509 -7.52358e-18)
(27.4967 2.79151 8.40636e-18)
(27.421 2.73759 9.3456e-19)
(27.3457 2.69249 9.37877e-19)
(27.2714 2.65545 -3.78709e-18)
(27.1991 2.62581 7.56745e-18)
(27.1292 2.60283 -2.82067e-18)
(27.0619 2.58558 0)
(26.9975 2.57341 9.44669e-19)
(26.9362 2.56605 0)
(26.8792 2.56084 4.6523e-19)
(25.5333 4.95921 1.57184e-17)
(25.6842 4.97585 -1.57059e-17)
(25.8239 4.98738 4.66905e-17)
(25.9546 4.99436 -1.60058e-17)
(26.0788 4.99636 -4.71593e-17)
(26.1986 4.99379 0)
(26.3156 4.98658 -4.70452e-17)
(26.4307 4.97446 3.1673e-17)
(26.5445 4.95682 1.96062e-19)
(26.6573 4.93283 3.90494e-17)
(26.769 4.90159 -3.13775e-17)
(26.8796 4.8622 -1.55728e-17)
(26.9882 4.81377 -7.82209e-18)
(27.0941 4.75549 3.82447e-17)
(27.196 4.6867 -2.3008e-17)
(27.2924 4.60701 -3.73417e-18)
(27.3817 4.51642 -2.25146e-17)
(27.4624 4.41516 3.00624e-17)
(27.5327 4.30372 3.65189e-18)
(27.5906 4.18297 -3.31912e-17)
(27.6343 4.05419 -3.54689e-18)
(27.6618 3.92331 1.916e-18)
(27.6734 3.79594 2.72127e-17)
(27.6709 3.67335 -1.44519e-17)
(27.6559 3.55709 1.43352e-17)
(27.63 3.44831 -1.43674e-17)
(27.5949 3.34779 1.42732e-17)
(27.5523 3.25598 -1.61577e-17)
(27.5038 3.17307 1.42488e-17)
(27.4509 3.09898 -1.80277e-18)
(27.3948 3.03347 0)
(27.3367 2.97616 -7.16987e-18)
(27.2777 2.92657 7.11234e-18)
(27.2184 2.88406 -8.05417e-18)
(27.1595 2.84811 5.31897e-18)
(27.1016 2.8182 0)
(27.0452 2.7938 -8.84087e-19)
(26.9905 2.77416 0)
(26.9378 2.7588 0)
(26.8872 2.74751 1.76423e-18)
(26.8398 2.73847 -8.68097e-19)
(25.5758 4.80886 -7.15747e-18)
(25.7103 4.82047 1.4264e-17)
(25.8345 4.82765 0)
(25.9503 4.83078 -2.86753e-17)
(26.0598 4.8295 2.91831e-17)
(26.1649 4.82426 0)
(26.267 4.81511 1.4648e-17)
(26.3669 4.80184 -5.88871e-17)
(26.465 4.78402 5.9848e-17)
(26.5617 4.76101 1.49585e-17)
(26.6569 4.73218 -7.38425e-18)
(26.7505 4.69686 7.36564e-18)
(26.8421 4.65442 1.47986e-17)
(26.9309 4.60427 0)
(27.0162 4.54596 2.19897e-17)
(27.0967 4.47921 -2.15491e-19)
(27.1714 4.40404 -4.00525e-17)
(27.2392 4.32059 3.2448e-17)
(27.2986 4.22922 -2.87908e-17)
(27.3483 4.13053 -7.22264e-18)
(27.3869 4.02541 2.83625e-17)
(27.4128 3.91844 -3.17245e-17)
(27.4261 3.81397 -3.54651e-18)
(27.4281 3.71298 0)
(27.4201 3.61669 0)
(27.4032 3.52601 0)
(27.3786 3.4416 1.73772e-18)
(27.3477 3.36388 -3.50713e-20)
(27.3118 3.29302 0)
(27.2719 3.22905 1.68759e-18)
(27.2291 3.1718 1.71113e-18)
(27.1843 3.12103 6.79452e-18)
(27.1383 3.0764 -1.35123e-17)
(27.0917 3.03745 -8.93819e-19)
(27.0451 3.00377 7.53457e-18)
(26.999 2.97501 1.68091e-18)
(26.9537 2.95076 0)
(26.9095 2.93044 1.6684e-18)
(26.8666 2.91369 -1.65997e-18)
(26.8251 2.90034 -3.44854e-21)
(26.7859 2.8892 8.11982e-19)
(25.6098 4.67964 0)
(25.7302 4.68739 -6.50511e-18)
(25.8411 4.6913 0)
(25.9442 4.69159 5.28465e-17)
(26.0413 4.68792 -8.08757e-17)
(26.1341 4.68082 2.68622e-17)
(26.2237 4.67037 -1.37334e-16)
(26.311 4.65644 5.5673e-17)
(26.3962 4.63869 -6.95224e-17)
(26.4797 4.61667 4.24152e-17)
(26.5615 4.5899 0)
(26.6415 4.55791 -5.6168e-17)
(26.7193 4.52024 3.53983e-17)
(26.7944 4.47648 -6.31079e-17)
(26.8662 4.42632 5.6229e-17)
(26.9339 4.36958 5.56504e-17)
(26.9966 4.30629 -4.18602e-17)
(27.0535 4.2366 -3.41765e-18)
(27.1036 4.16075 0)
(27.146 4.07921 3.41122e-17)
(27.1795 3.99261 -2.72337e-17)
(27.203 3.90454 0)
(27.2164 3.81838 3.02156e-17)
(27.2207 3.73487 -2.33456e-17)
(27.217 3.65496 0)
(27.2061 3.57936 3.33254e-18)
(27.1889 3.50859 1.31983e-17)
(27.1664 3.44299 -2.45411e-17)
(27.1397 3.38275 2.43948e-17)
(27.1095 3.32789 -2.59131e-17)
(27.0768 3.27832 1.12706e-17)
(27.0423 3.23388 0)
(27.0064 3.19432 6.40592e-18)
(26.9699 3.15929 -4.76955e-18)
(26.933 3.12851 1.59167e-18)
(26.8963 3.10171 4.75051e-18)
(26.86 3.0786 -6.26399e-18)
(26.8243 3.0587 -1.55665e-18)
(26.7894 3.04177 1.55967e-18)
(26.7556 3.02766 1.5493e-18)
(26.7233 3.01562 0)
(25.6372 4.56755 0)
(25.7453 4.57233 -2.36493e-17)
(25.8447 4.57378 -2.37461e-17)
(25.9369 4.57196 4.91001e-17)
(26.0234 4.56659 4.9656e-17)
(26.1057 4.55821 2.51519e-17)
(26.1848 4.54694 2.54979e-17)
(26.2615 4.53269 -5.16319e-17)
(26.336 4.51522 3.72094e-19)
(26.4086 4.4942 1.05597e-16)
(26.4793 4.46927 1.29737e-17)
(26.5481 4.4401 -6.68341e-17)
(26.6146 4.40635 1.32508e-17)
(26.6786 4.36775 -4.6563e-17)
(26.7394 4.3241 4.66933e-17)
(26.7966 4.27528 0)
(26.8495 4.22137 -6.55563e-18)
(26.8974 4.16248 0)
(26.9397 4.09883 2.61954e-17)
(26.9757 4.03078 -5.22236e-17)
(27.0045 3.9588 3.24957e-17)
(27.0252 3.88572 3.25144e-18)
(27.0379 3.81422 0)
(27.0433 3.74483 -2.86493e-17)
(27.0421 3.67828 2.21228e-17)